ITEM: TIMESTEP
0
ITEM: NUMBER OF ATOMS
64000
ITEM: BOX BOUNDS pp pp pp
0.0000000000000000e+00 1.2680312871000000e+02
0.0000000000000000e+00 1.2680312871000000e+02
0.0000000000000000e+00 1.2680312871000000e+02
ITEM: ATOMS id type xu yu zu
1 1 0 0 0
2 1 0 0 6.34016
3 1 0 0 12.6803
4 1 0 0 19.0205
5 1 0 0 25.3606
6 1 0 0 31.7008
7 1 0 0 38.0409
8 1 0 0 44.3811
9 1 0 0 50.7213
10 1 0 0 57.0614
11 1 0 0 63.4016
12 1 0 0 69.7417
13 1 0 0 76.0819
14 1 0 0 82.422
15 1 0 0 88.7622
16 1 0 0 95.1023
17 1 0 0 101.443
18 1 0 0 107.783
19 1 0 0 114.123
20 1 0 0 120.463
21 1 0 6.34016 0
22 1 0 6.34016 6.34016
23 1 0 6.34016 12.6803
24 1 0 6.34016 19.0205
25 1 0 6.34016 25.3606
26 1 0 6.34016 31.7008
27 1 0 6.34016 38.0409
28 1 0 6.34016 44.3811
29 1 0 6.34016 50.7213
30 1 0 6.34016 57.0614
31 1 0 6.34016 63.4016
32 1 0 6.34016 69.7417
33 1 0 6.34016 76.0819
34 1 0 6.34016 82.422
35 1 0 6.34016 88.7622
36 1 0 6.34016 95.1023
37 1 0 6.34016 101.443
38 1 0 6.34016 107.783
39 1 0 6.34016 114.123
40 1 0 6.34016 120.463
41 1 0 12.6803 0
42 1 0 12.6803 6.34016
43 1 0 12.6803 12.6803
44 1 0 12.6803 19.0205
45 1 0 12.6803 25.3606
46 1 0 12.6803 31.7008
47 1 0 12.6803 38.0409
48 1 0 12.6803 44.3811
49 1 0 12.6803 50.7213
50 1 0 12.6803 57.0614
51 1 0 12.6803 63.4016
52 1 0 12.6803 69.7417
53 1 0 12.6803 76.0819
54 1 0 12.6803 82.422
55 1 0 12.6803 88.7622
56 1 0 12.6803 95.1023
57 1 0 12.6803 101.443
58 1 0 12.6803 107.783
59 1 0 12.6803 114.123
60 1 0 12.6803 120.463
61 1 0 19.0205 0
62 1 0 19.0205 6.34016
63 1 0 19.0205 12.6803
64 1 0 19.0205 19.0205
65 1 0 19.0205 25.3606
66 1 0 19.0205 31.7008
67 1 0 19.0205 38.0409
68 1 0 19.0205 44.3811
69 1 0 19.0205 50.7213
70 1 0 19.0205 57.0614
71 1 0 19.0205 63.4016
72 1 0 19.0205 69.7417
73 1 0 19.0205 76.0819
74 1 0 19.0205 82.422
75 1 0 19.0205 88.7622
76 1 0 19.0205 95.1023
77 1 0 19.0205 101.443
78 1 0 19.0205 107.783
79 1 0 19.0205 114.123
80 1 0 19.0205 120.463
81 1 0 25.3606 0
82 1 0 25.3606 6.34016
83 1 0 25.3606 12.6803
84 1 0 25.3606 19.0205
85 1 0 25.3606 25.3606
86 1 0 25.3606 31.7008
87 1 0 25.3606 38.0409
88 1 0 25.3606 44.3811
89 1 0 25.3606 50.7213
90 1 0 25.3606 57.0614
91 1 0 25.3606 63.4016
92 1 0 25.3606 69.7417
93 1 0 25.3606 76.0819
94 1 0 25.3606 82.422
95 1 0 25.3606 88.7622
96 1 0 25.3606 95.1023
97 1 0 25.3606 101.443
98 1 0 25.3606 107.783
99 1 0 25.3606 114.123
100 1 0 25.3606 120.463
101 1 0 31.7008 0
102 1 0 31.7008 6.34016
103 1 0 31.7008 12.6803
104 1 0 31.7008 19.0205
105 1 0 31.7008 25.3606
106 1 0 31.7008 31.7008
107 1 0 31.7008 38.0409
108 1 0 31.7008 44.3811
109 1 0 31.7008 50.7213
110 1 0 31.7008 57.0614
111 1 0 31.7008 63.4016
112 1 0 31.7008 69.7417
113 1 0 31.7008 76.0819
114 1 0 31.7008 82.422
115 1 0 31.7008 88.7622
116 1 0 31.7008 95.1023
117 1 0 31.7008 101.443
118 1 0 31.7008 107.783
119 1 0 31.7008 114.123
120 1 0 31.7008 120.463
121 1 0 38.0409 0
122 1 0 38.0409 6.34016
123 1 0 38.0409 12.6803
124 1 0 38.0409 19.0205
125 1 0 38.0409 25.3606
126 1 0 38.0409 31.7008
127 1 0 38.0409 38.0409
128 1 0 38.0409 44.3811
129 1 0 38.0409 50.7213
130 1 0 38.0409 57.0614
131 1 0 38.0409 63.4016
132 1 0 38.0409 69.7417
133 1 0 38.0409 76.0819
134 1 0 38.0409 82.422
135 1 0 38.0409 88.7622
136 1 0 38.0409 95.1023
137 1 0 38.0409 101.443
138 1 0 38.0409 107.783
139 1 0 38.0409 114.123
140 1 0 38.0409 120.463
141 1 0 44.3811 0
142 1 0 44.3811 6.34016
143 1 0 44.3811 12.6803
144 1 0 44.3811 19.0205
145 1 0 44.3811 25.3606
146 1 0 44.3811 31.7008
147 1 0 44.3811 38.0409
148 1 0 44.3811 44.3811
149 1 0 44.3811 50.7213
150 1 0 44.3811 57.0614
151 1 0 44.3811 63.4016
152 1 0 44.3811 69.7417
153 1 0 44.3811 76.0819
154 1 0 44.3811 82.422
155 1 0 44.3811 88.7622
156 1 0 44.3811 95.1023
157 1 0 44.3811 101.443
158 1 0 44.3811 107.783
159 1 0 44.3811 114.123
160 1 0 44.3811 120.463
161 1 0 50.7213 0
162 1 0 50.7213 6.34016
163 1 0 50.7213 12.6803
164 1 0 50.7213 19.0205
165 1 0 50.7213 25.3606
166 1 0 50.7213 31.7008
167 1 0 50.7213 38.0409
168 1 0 50.7213 44.3811
169 1 0 50.7213 50.7213
170 1 0 50.7213 57.0614
171 1 0 50.7213 63.4016
172 1 0 50.7213 69.7417
173 1 0 50.7213 76.0819
174 1 0 50.7213 82.422
175 1 0 50.7213 88.7622
176 1 0 50.7213 95.1023
177 1 0 50.7213 101.443
178 1 0 50.7213 107.783
179 1 0 50.7213 114.123
180 1 0 50.7213 120.463
181 1 0 57.0614 0
182 1 0 57.0614 6.34016
183 1 0 57.0614 12.6803
184 1 0 57.0614 19.0205
185 1 0 57.0614 25.3606
186 1 0 57.0614 31.7008
187 1 0 57.0614 38.0409
188 1 0 57.0614 44.3811
189 1 0 57.0614 50.7213
190 1 0 57.0614 57.0614
191 1 0 57.0614 63.4016
192 1 0 57.0614 69.7417
193 1 0 57.0614 76.0819
194 1 0 57.0614 82.422
195 1 0 57.0614 88.7622
196 1 0 57.0614 95.1023
197 1 0 57.0614 101.443
198 1 0 57.0614 107.783
199 1 0 57.0614 114.123
200 1 0 57.0614 120.463
201 1 0 63.4016 0
202 1 0 63.4016 6.34016
203 1 0 63.4016 12.6803
204 1 0 63.4016 19.0205
205 1 0 63.4016 25.3606
206 1 0 63.4016 31.7008
207 1 0 63.4016 38.0409
208 1 0 63.4016 44.3811
209 1 0 63.4016 50.7213
210 1 0 63.4016 57.0614
211 1 0 63.4016 63.4016
212 1 0 63.4016 69.7417
213 1 0 63.4016 76.0819
214 1 0 63.4016 82.422
215 1 0 63.4016 88.7622
216 1 0 63.4016 95.1023
217 1 0 63.4016 101.443
218 1 0 63.4016 107.783
219 1 0 63.4016 114.123
220 1 0 63.4016 120.463
221 1 0 69.7417 0
222 1 0 69.7417 6.34016
223 1 0 69.7417 12.6803
224 1 0 69.7417 19.0205
225 1 0 69.7417 25.3606
226 1 0 69.7417 31.7008
227 1 0 69.7417 38.0409
228 1 0 69.7417 44.3811
229 1 0 69.7417 50.7213
230 1 0 69.7417 57.0614
231 1 0 69.7417 63.4016
232 1 0 69.7417 69.7417
233 1 0 69.7417 76.0819
234 1 0 69.7417 82.422
235 1 0 69.7417 88.7622
236 1 0 69.7417 95.1023
237 1 0 69.7417 101.443
238 1 0 69.7417 107.783
239 1 0 69.7417 114.123
240 1 0 69.7417 120.463
241 1 0 76.0819 0
242 1 0 76.0819 6.34016
243 1 0 76.0819 12.6803
244 1 0 76.0819 19.0205
245 1 0 76.0819 25.3606
246 1 0 76.0819 31.7008
247 1 0 76.0819 38.0409
248 1 0 76.0819 44.3811
249 1 0 76.0819 50.7213
250 1 0 76.0819 57.0614
251 1 0 76.0819 63.4016
252 1 0 76.0819 69.7417
253 1 0 76.0819 76.0819
254 1 0 76.0819 82.422
255 1 0 76.0819 88.7622
256 1 0 76.0819 95.1023
257 1 0 76.0819 101.443
258 1 0 76.0819 107.783
259 1 0 76.0819 114.123
260 1 0 76.0819 120.463
261 1 0 82.422 0
262 1 0 82.422 6.34016
263 1 0 82.422 12.6803
264 1 0 82.422 19.0205
265 1 0 82.422 25.3606
266 1 0 82.422 31.7008
267 1 0 82.422 38.0409
268 1 0 82.422 44.3811
269 1 0 82.422 50.7213
270 1 0 82.422 57.0614
271 1 0 82.422 63.4016
272 1 0 82.422 69.7417
273 1 0 82.422 76.0819
274 1 0 82.422 82.422
275 1 0 82.422 88.7622
276 1 0 82.422 95.1023
277 1 0 82.422 101.443
278 1 0 82.422 107.783
279 1 0 82.422 114.123
280 1 0 82.422 120.463
281 1 0 88.7622 0
282 1 0 88.7622 6.34016
283 1 0 88.7622 12.6803
284 1 0 88.7622 19.0205
285 1 0 88.7622 25.3606
286 1 0 88.7622 31.7008
287 1 0 88.7622 38.0409
288 1 0 88.7622 44.3811
289 1 0 88.7622 50.7213
290 1 0 88.7622 57.0614
291 1 0 88.7622 63.4016
292 1 0 88.7622 69.7417
293 1 0 88.7622 76.0819
294 1 0 88.7622 82.422
295 1 0 88.7622 88.7622
296 1 0 88.7622 95.1023
297 1 0 88.7622 101.443
298 1 0 88.7622 107.783
299 1 0 88.7622 114.123
300 1 0 88.7622 120.463
301 1 0 95.1023 0
302 1 0 95.1023 6.34016
303 1 0 95.1023 12.6803
304 1 0 95.1023 19.0205
305 1 0 95.1023 25.3606
306 1 0 95.1023 31.7008
307 1 0 95.1023 38.0409
308 1 0 95.1023 44.3811
309 1 0 95.1023 50.7213
310 1 0 95.1023 57.0614
311 1 0 95.1023 63.4016
312 1 0 95.1023 69.7417
313 1 0 95.1023 76.0819
314 1 0 95.1023 82.422
315 1 0 95.1023 88.7622
316 1 0 95.1023 95.1023
317 1 0 95.1023 101.443
318 1 0 95.1023 107.783
319 1 0 95.1023 114.123
320 1 0 95.1023 120.463
321 1 0 101.443 0
322 1 0 101.443 6.34016
323 1 0 101.443 12.6803
324 1 0 101.443 19.0205
325 1 0 101.443 25.3606
326 1 0 101.443 31.7008
327 1 0 101.443 38.0409
328 1 0 101.443 44.3811
329 1 0 101.443 50.7213
330 1 0 101.443 57.0614
331 1 0 101.443 63.4016
332 1 0 101.443 69.7417
333 1 0 101.443 76.0819
334 1 0 101.443 82.422
335 1 0 101.443 88.7622
336 1 0 101.443 95.1023
337 1 0 101.443 101.443
338 1 0 101.443 107.783
339 1 0 101.443 114.123
340 1 0 101.443 120.463
341 1 0 107.783 0
342 1 0 107.783 6.34016
343 1 0 107.783 12.6803
344 1 0 107.783 19.0205
345 1 0 107.783 25.3606
346 1 0 107.783 31.7008
347 1 0 107.783 38.0409
348 1 0 107.783 44.3811
349 1 0 107.783 50.7213
350 1 0 107.783 57.0614
351 1 0 107.783 63.4016
352 1 0 107.783 69.7417
353 1 0 107.783 76.0819
354 1 0 107.783 82.422
355 1 0 107.783 88.7622
356 1 0 107.783 95.1023
357 1 0 107.783 101.443
358 1 0 107.783 107.783
359 1 0 107.783 114.123
360 1 0 107.783 120.463
361 1 0 114.123 0
362 1 0 114.123 6.34016
363 1 0 114.123 12.6803
364 1 0 114.123 19.0205
365 1 0 114.123 25.3606
366 1 0 114.123 31.7008
367 1 0 114.123 38.0409
368 1 0 114.123 44.3811
369 1 0 114.123 50.7213
370 1 0 114.123 57.0614
371 1 0 114.123 63.4016
372 1 0 114.123 69.7417
373 1 0 114.123 76.0819
374 1 0 114.123 82.422
375 1 0 114.123 88.7622
376 1 0 114.123 95.1023
377 1 0 114.123 101.443
378 1 0 114.123 107.783
379 1 0 114.123 114.123
380 1 0 114.123 120.463
381 1 0 120.463 0
382 1 0 120.463 6.34016
383 1 0 120.463 12.6803
384 1 0 120.463 19.0205
385 1 0 120.463 25.3606
386 1 0 120.463 31.7008
387 1 0 120.463 38.0409
388 1 0 120.463 44.3811
389 1 0 120.463 50.7213
390 1 0 120.463 57.0614
391 1 0 120.463 63.4016
392 1 0 120.463 69.7417
393 1 0 120.463 76.0819
394 1 0 120.463 82.422
395 1 0 120.463 88.7622
396 1 0 120.463 95.1023
397 1 0 120.463 101.443
398 1 0 120.463 107.783
399 1 0 120.463 114.123
400 1 0 120.463 120.463
401 1 6.34016 0 0
402 1 6.34016 0 6.34016
403 1 6.34016 0 12.6803
404 1 6.34016 0 19.0205
405 1 6.34016 0 25.3606
406 1 6.34016 0 31.7008
407 1 6.34016 0 38.0409
408 1 6.34016 0 44.3811
409 1 6.34016 0 50.7213
410 1 6.34016 0 57.0614
411 1 6.34016 0 63.4016
412 1 6.34016 0 69.7417
413 1 6.34016 0 76.0819
414 1 6.34016 0 82.422
415 1 6.34016 0 88.7622
416 1 6.34016 0 95.1023
417 1 6.34016 0 101.443
418 1 6.34016 0 107.783
419 1 6.34016 0 114.123
420 1 6.34016 0 120.463
421 1 6.34016 6.34016 0
422 1 6.34016 6.34016 6.34016
423 1 6.34016 6.34016 12.6803
424 1 6.34016 6.34016 19.0205
425 1 6.34016 6.34016 25.3606
426 1 6.34016 6.34016 31.7008
427 1 6.34016 6.34016 38.0409
428 1 6.34016 6.34016 44.3811
429 1 6.34016 6.34016 50.7213
430 1 6.34016 6.34016 57.0614
431 1 6.34016 6.34016 63.4016
432 1 6.34016 6.34016 69.7417
433 1 6.34016 6.34016 76.0819
434 1 6.34016 6.34016 82.422
435 1 6.34016 6.34016 88.7622
436 1 6.34016 6.34016 95.1023
437 1 6.34016 6.34016 101.443
438 1 6.34016 6.34016 107.783
439 1 6.34016 6.34016 114.123
440 1 6.34016 6.34016 120.463
441 1 6.34016 12.6803 0
442 1 6.34016 12.6803 6.34016
443 1 6.34016 12.6803 12.6803
444 1 6.34016 12.6803 19.0205
445 1 6.34016 12.6803 25.3606
446 1 6.34016 12.6803 31.7008
447 1 6.34016 12.6803 38.0409
448 1 6.34016 12.6803 44.3811
449 1 6.34016 12.6803 50.7213
450 1 6.34016 12.6803 57.0614
451 1 6.34016 12.6803 63.4016
452 1 6.34016 12.6803 69.7417
453 1 6.34016 12.6803 76.0819
454 1 6.34016 12.6803 82.422
455 1 6.34016 12.6803 88.7622
456 1 6.34016 12.6803 95.1023
457 1 6.34016 12.6803 101.443
458 1 6.34016 12.6803 107.783
459 1 6.34016 12.6803 114.123
460 1 6.34016 12.6803 120.463
461 1 6.34016 19.0205 0
462 1 6.34016 19.0205 6.34016
463 1 6.34016 19.0205 12.6803
464 1 6.34016 19.0205 19.0205
465 1 6.34016 19.0205 25.3606
466 1 6.34016 19.0205 31.7008
467 1 6.34016 19.0205 38.0409
468 1 6.34016 19.0205 44.3811
469 1 6.34016 19.0205 50.7213
470 1 6.34016 19.0205 57.0614
471 1 6.34016 19.0205 63.4016
472 1 6.34016 19.0205 69.7417
473 1 6.34016 19.0205 76.0819
474 1 6.34016 19.0205 82.422
475 1 6.34016 19.0205 88.7622
476 1 6.34016 19.0205 95.1023
477 1 6.34016 19.0205 101.443
478 1 6.34016 19.0205 107.783
479 1 6.34016 19.0205 114.123
480 1 6.34016 19.0205 120.463
481 1 6.34016 25.3606 0
482 1 6.34016 25.3606 6.34016
483 1 6.34016 25.3606 12.6803
484 1 6.34016 25.3606 19.0205
485 1 6.34016 25.3606 25.3606
486 1 6.34016 25.3606 31.7008
487 1 6.34016 25.3606 38.0409
488 1 6.34016 25.3606 44.3811
489 1 6.34016 25.3606 50.7213
490 1 6.34016 25.3606 57.0614
491 1 6.34016 25.3606 63.4016
492 1 6.34016 25.3606 69.7417
493 1 6.34016 25.3606 76.0819
494 1 6.34016 25.3606 82.422
495 1 6.34016 25.3606 88.7622
496 1 6.34016 25.3606 95.1023
497 1 6.34016 25.3606 101.443
498 1 6.34016 25.3606 107.783
499 1 6.34016 25.3606 114.123
500 1 6.34016 25.3606 120.463
501 1 6.34016 31.7008 0
502 1 6.34016 31.7008 6.34016
503 1 6.34016 31.7008 12.6803
504 1 6.34016 31.7008 19.0205
505 1 6.34016 31.7008 25.3606
506 1 6.34016 31.7008 31.7008
507 1 6.34016 31.7008 38.0409
508 1 6.34016 31.7008 44.3811
509 1 6.34016 31.7008 50.7213
510 1 6.34016 31.7008 57.0614
511 1 6.34016 31.7008 63.4016
512 1 6.34016 31.7008 69.7417
513 1 6.34016 31.7008 76.0819
514 1 6.34016 31.7008 82.422
515 1 6.34016 31.7008 88.7622
516 1 6.34016 31.7008 95.1023
517 1 6.34016 31.7008 101.443
518 1 6.34016 31.7008 107.783
519 1 6.34016 31.7008 114.123
520 1 6.34016 31.7008 120.463
521 1 6.34016 38.0409 0
522 1 6.34016 38.0409 6.34016
523 1 6.34016 38.0409 12.6803
524 1 6.34016 38.0409 19.0205
525 1 6.34016 38.0409 25.3606
526 1 6.34016 38.0409 31.7008
527 1 6.34016 38.0409 38.0409
528 1 6.34016 38.0409 44.3811
529 1 6.34016 38.0409 50.7213
530 1 6.34016 38.0409 57.0614
531 1 6.34016 38.0409 63.4016
532 1 6.34016 38.0409 69.7417
533 1 6.34016 38.0409 76.0819
534 1 6.34016 38.0409 82.422
535 1 6.34016 38.0409 88.7622
536 1 6.34016 38.0409 95.1023
537 1 6.34016 38.0409 101.443
538 1 6.34016 38.0409 107.783
539 1 6.34016 38.0409 114.123
540 1 6.34016 38.0409 120.463
541 1 6.34016 44.3811 0
542 1 6.34016 44.3811 6.34016
543 1 6.34016 44.3811 12.6803
544 1 6.34016 44.3811 19.0205
545 1 6.34016 44.3811 25.3606
546 1 6.34016 44.3811 31.7008
547 1 6.34016 44.3811 38.0409
548 1 6.34016 44.3811 44.3811
549 1 6.34016 44.3811 50.7213
550 1 6.34016 44.3811 57.0614
551 1 6.34016 44.3811 63.4016
552 1 6.34016 44.3811 69.7417
553 1 6.34016 44.3811 76.0819
554 1 6.34016 44.3811 82.422
555 1 6.34016 44.3811 88.7622
556 1 6.34016 44.3811 95.1023
557 1 6.34016 44.3811 101.443
558 1 6.34016 44.3811 107.783
559 1 6.34016 44.3811 114.123
560 1 6.34016 44.3811 120.463
561 1 6.34016 50.7213 0
562 1 6.34016 50.7213 6.34016
563 1 6.34016 50.7213 12.6803
564 1 6.34016 50.7213 19.0205
565 1 6.34016 50.7213 25.3606
566 1 6.34016 50.7213 31.7008
567 1 6.34016 50.7213 38.0409
568 1 6.34016 50.7213 44.3811
569 1 6.34016 50.7213 50.7213
570 1 6.34016 50.7213 57.0614
571 1 6.34016 50.7213 63.4016
572 1 6.34016 50.7213 69.7417
573 1 6.34016 50.7213 76.0819
574 1 6.34016 50.7213 82.422
575 1 6.34016 50.7213 88.7622
576 1 6.34016 50.7213 95.1023
577 1 6.34016 50.7213 101.443
578 1 6.34016 50.7213 107.783
579 1 6.34016 50.7213 114.123
580 1 6.34016 50.7213 120.463
581 1 6.34016 57.0614 0
582 1 6.34016 57.0614 6.34016
583 1 6.34016 57.0614 12.6803
584 1 6.34016 57.0614 19.0205
585 1 6.34016 57.0614 25.3606
586 1 6.34016 57.0614 31.7008
587 1 6.34016 57.0614 38.0409
588 1 6.34016 57.0614 44.3811
589 1 6.34016 57.0614 50.7213
590 1 6.34016 57.0614 57.0614
591 1 6.34016 57.0614 63.4016
592 1 6.34016 57.0614 69.7417
593 1 6.34016 57.0614 76.0819
594 1 6.34016 57.0614 82.422
595 1 6.34016 57.0614 88.7622
596 1 6.34016 57.0614 95.1023
597 1 6.34016 57.0614 101.443
598 1 6.34016 57.0614 107.783
599 1 6.34016 57.0614 114.123
600 1 6.34016 57.0614 120.463
601 1 6.34016 63.4016 0
602 1 6.34016 63.4016 6.34016
603 1 6.34016 63.4016 12.6803
604 1 6.34016 63.4016 19.0205
605 1 6.34016 63.4016 25.3606
606 1 6.34016 63.4016 31.7008
607 1 6.34016 63.4016 38.0409
608 1 6.34016 63.4016 44.3811
609 1 6.34016 63.4016 50.7213
610 1 6.34016 63.4016 57.0614
611 1 6.34016 63.4016 63.4016
612 1 6.34016 63.4016 69.7417
613 1 6.34016 63.4016 76.0819
614 1 6.34016 63.4016 82.422
615 1 6.34016 63.4016 88.7622
616 1 6.34016 63.4016 95.1023
617 1 6.34016 63.4016 101.443
618 1 6.34016 63.4016 107.783
619 1 6.34016 63.4016 114.123
620 1 6.34016 63.4016 120.463
621 1 6.34016 69.7417 0
622 1 6.34016 69.7417 6.34016
623 1 6.34016 69.7417 12.6803
624 1 6.34016 69.7417 19.0205
625 1 6.34016 69.7417 25.3606
626 1 6.34016 69.7417 31.7008
627 1 6.34016 69.7417 38.0409
628 1 6.34016 69.7417 44.3811
629 1 6.34016 69.7417 50.7213
630 1 6.34016 69.7417 57.0614
631 1 6.34016 69.7417 63.4016
632 1 6.34016 69.7417 69.7417
633 1 6.34016 69.7417 76.0819
634 1 6.34016 69.7417 82.422
635 1 6.34016 69.7417 88.7622
636 1 6.34016 69.7417 95.1023
637 1 6.34016 69.7417 101.443
638 1 6.34016 69.7417 107.783
639 1 6.34016 69.7417 114.123
640 1 6.34016 69.7417 120.463
641 1 6.34016 76.0819 0
642 1 6.34016 76.0819 6.34016
643 1 6.34016 76.0819 12.6803
644 1 6.34016 76.0819 19.0205
645 1 6.34016 76.0819 25.3606
646 1 6.34016 76.0819 31.7008
647 1 6.34016 76.0819 38.0409
648 1 6.34016 76.0819 44.3811
649 1 6.34016 76.0819 50.7213
650 1 6.34016 76.0819 57.0614
651 1 6.34016 76.0819 63.4016
652 1 6.34016 76.0819 69.7417
653 1 6.34016 76.0819 76.0819
654 1 6.34016 76.0819 82.422
655 1 6.34016 76.0819 88.7622
656 1 6.34016 76.0819 95.1023
657 1 6.34016 76.0819 101.443
658 1 6.34016 76.0819 107.783
659 1 6.34016 76.0819 114.123
660 1 6.34016 76.0819 120.463
661 1 6.34016 82.422 0
662 1 6.34016 82.422 6.34016
663 1 6.34016 82.422 12.6803
664 1 6.34016 82.422 19.0205
665 1 6.34016 82.422 25.3606
666 1 6.34016 82.422 31.7008
667 1 6.34016 82.422 38.0409
668 1 6.34016 82.422 44.3811
669 1 6.34016 82.422 50.7213
670 1 6.34016 82.422 57.0614
671 1 6.34016 82.422 63.4016
672 1 6.34016 82.422 69.7417
673 1 6.34016 82.422 76.0819
674 1 6.34016 82.422 82.422
675 1 6.34016 82.422 88.7622
676 1 6.34016 82.422 95.1023
677 1 6.34016 82.422 101.443
678 1 6.34016 82.422 107.783
679 1 6.34016 82.422 114.123
680 1 6.34016 82.422 120.463
681 1 6.34016 88.7622 0
682 1 6.34016 88.7622 6.34016
683 1 6.34016 88.7622 12.6803
684 1 6.34016 88.7622 19.0205
685 1 6.34016 88.7622 25.3606
686 1 6.34016 88.7622 31.7008
687 1 6.34016 88.7622 38.0409
688 1 6.34016 88.7622 44.3811
689 1 6.34016 88.7622 50.7213
690 1 6.34016 88.7622 57.0614
691 1 6.34016 88.7622 63.4016
692 1 6.34016 88.7622 69.7417
693 1 6.34016 88.7622 76.0819
694 1 6.34016 88.7622 82.422
695 1 6.34016 88.7622 88.7622
696 1 6.34016 88.7622 95.1023
697 1 6.34016 88.7622 101.443
698 1 6.34016 88.7622 107.783
699 1 6.34016 88.7622 114.123
700 1 6.34016 88.7622 120.463
701 1 6.34016 95.1023 0
702 1 6.34016 95.1023 6.34016
703 1 6.34016 95.1023 12.6803
704 1 6.34016 95.1023 19.0205
705 1 6.34016 95.1023 25.3606
706 1 6.34016 95.1023 31.7008
707 1 6.34016 95.1023 38.0409
708 1 6.34016 95.1023 44.3811
709 1 6.34016 95.1023 50.7213
710 1 6.34016 95.1023 57.0614
711 1 6.34016 95.1023 63.4016
712 1 6.34016 95.1023 69.7417
713 1 6.34016 95.1023 76.0819
714 1 6.34016 95.1023 82.422
715 1 6.34016 95.1023 88.7622
716 1 6.34016 95.1023 95.1023
717 1 6.34016 95.1023 101.443
718 1 6.34016 95.1023 107.783
719 1 6.34016 95.1023 114.123
720 1 6.34016 95.1023 120.463
721 1 6.34016 101.443 0
722 1 6.34016 101.443 6.34016
723 1 6.34016 101.443 12.6803
724 1 6.34016 101.443 19.0205
725 1 6.34016 101.443 25.3606
726 1 6.34016 101.443 31.7008
727 1 6.34016 101.443 38.0409
728 1 6.34016 101.443 44.3811
729 1 6.34016 101.443 50.7213
730 1 6.34016 101.443 57.0614
731 1 6.34016 101.443 63.4016
732 1 6.34016 101.443 69.7417
733 1 6.34016 101.443 76.0819
734 1 6.34016 101.443 82.422
735 1 6.34016 101.443 88.7622
736 1 6.34016 101.443 95.1023
737 1 6.34016 101.443 101.443
738 1 6.34016 101.443 107.783
739 1 6.34016 101.443 114.123
740 1 6.34016 101.443 120.463
741 1 6.34016 107.783 0
742 1 6.34016 107.783 6.34016
743 1 6.34016 107.783 12.6803
744 1 6.34016 107.783 19.0205
745 1 6.34016 107.783 25.3606
746 1 6.34016 107.783 31.7008
747 1 6.34016 107.783 38.0409
748 1 6.34016 107.783 44.3811
749 1 6.34016 107.783 50.7213
750 1 6.34016 107.783 57.0614
751 1 6.34016 107.783 63.4016
752 1 6.34016 107.783 69.7417
753 1 6.34016 107.783 76.0819
754 1 6.34016 107.783 82.422
755 1 6.34016 107.783 88.7622
756 1 6.34016 107.783 95.1023
757 1 6.34016 107.783 101.443
758 1 6.34016 107.783 107.783
759 1 6.34016 107.783 114.123
760 1 6.34016 107.783 120.463
761 1 6.34016 114.123 0
762 1 6.34016 114.123 6.34016
763 1 6.34016 114.123 12.6803
764 1 6.34016 114.123 19.0205
765 1 6.34016 114.123 25.3606
766 1 6.34016 114.123 31.7008
767 1 6.34016 114.123 38.0409
768 1 6.34016 114.123 44.3811
769 1 6.34016 114.123 50.7213
770 1 6.34016 114.123 57.0614
771 1 6.34016 114.123 63.4016
772 1 6.34016 114.123 69.7417
773 1 6.34016 114.123 76.0819
774 1 6.34016 114.123 82.422
775 1 6.34016 114.123 88.7622
776 1 6.34016 114.123 95.1023
777 1 6.34016 114.123 101.443
778 1 6.34016 114.123 107.783
779 1 6.34016 114.123 114.123
780 1 6.34016 114.123 120.463
781 1 6.34016 120.463 0
782 1 6.34016 120.463 6.34016
783 1 6.34016 120.463 12.6803
784 1 6.34016 120.463 19.0205
785 1 6.34016 120.463 25.3606
786 1 6.34016 120.463 31.7008
787 1 6.34016 120.463 38.0409
788 1 6.34016 120.463 44.3811
789 1 6.34016 120.463 50.7213
790 1 6.34016 120.463 57.0614
791 1 6.34016 120.463 63.4016
792 1 6.34016 120.463 69.7417
793 1 6.34016 120.463 76.0819
794 1 6.34016 120.463 82.422
795 1 6.34016 120.463 88.7622
796 1 6.34016 120.463 95.1023
797 1 6.34016 120.463 101.443
798 1 6.34016 120.463 107.783
799 1 6.34016 120.463 114.123
800 1 6.34016 120.463 120.463
801 1 12.6803 0 0
802 1 12.6803 0 6.34016
803 1 12.6803 0 12.6803
804 1 12.6803 0 19.0205
805 1 12.6803 0 25.3606
806 1 12.6803 0 31.7008
807 1 12.6803 0 38.0409
808 1 12.6803 0 44.3811
809 1 12.6803 0 50.7213
810 1 12.6803 0 57.0614
811 1 12.6803 0 63.4016
812 1 12.6803 0 69.7417
813 1 12.6803 0 76.0819
814 1 12.6803 0 82.422
815 1 12.6803 0 88.7622
816 1 12.6803 0 95.1023
817 1 12.6803 0 101.443
818 1 12.6803 0 107.783
819 1 12.6803 0 114.123
820 1 12.6803 0 120.463
821 1 12.6803 6.34016 0
822 1 12.6803 6.34016 6.34016
823 1 12.6803 6.34016 12.6803
824 1 12.6803 6.34016 19.0205
825 1 12.6803 6.34016 25.3606
826 1 12.6803 6.34016 31.7008
827 1 12.6803 6.34016 38.0409
828 1 12.6803 6.34016 44.3811
829 1 12.6803 6.34016 50.7213
830 1 12.6803 6.34016 57.0614
831 1 12.6803 6.34016 63.4016
832 1 12.6803 6.34016 69.7417
833 1 12.6803 6.34016 76.0819
834 1 12.6803 6.34016 82.422
835 1 12.6803 6.34016 88.7622
836 1 12.6803 6.34016 95.1023
837 1 12.6803 6.34016 101.443
838 1 12.6803 6.34016 107.783
839 1 12.6803 6.34016 114.123
840 1 12.6803 6.34016 120.463
841 1 12.6803 12.6803 0
842 1 12.6803 12.6803 6.34016
843 1 12.6803 12.6803 12.6803
844 1 12.6803 12.6803 19.0205
845 1 12.6803 12.6803 25.3606
846 1 12.6803 12.6803 31.7008
847 1 12.6803 12.6803 38.0409
848 1 12.6803 12.6803 44.3811
849 1 12.6803 12.6803 50.7213
850 1 12.6803 12.6803 57.0614
851 1 12.6803 12.6803 63.4016
852 1 12.6803 12.6803 69.7417
853 1 12.6803 12.6803 76.0819
854 1 12.6803 12.6803 82.422
855 1 12.6803 12.6803 88.7622
856 1 12.6803 12.6803 95.1023
857 1 12.6803 12.6803 101.443
858 1 12.6803 12.6803 107.783
859 1 12.6803 12.6803 114.123
860 1 12.6803 12.6803 120.463
861 1 12.6803 19.0205 0
862 1 12.6803 19.0205 6.34016
863 1 12.6803 19.0205 12.6803
864 1 12.6803 19.0205 19.0205
865 1 12.6803 19.0205 25.3606
866 1 12.6803 19.0205 31.7008
867 1 12.6803 19.0205 38.0409
868 1 12.6803 19.0205 44.3811
869 1 12.6803 19.0205 50.7213
870 1 12.6803 19.0205 57.0614
871 1 12.6803 19.0205 63.4016
872 1 12.6803 19.0205 69.7417
873 1 12.6803 19.0205 76.0819
874 1 12.6803 19.0205 82.422
875 1 12.6803 19.0205 88.7622
876 1 12.6803 19.0205 95.1023
877 1 12.6803 19.0205 101.443
878 1 12.6803 19.0205 107.783
879 1 12.6803 19.0205 114.123
880 1 12.6803 19.0205 120.463
881 1 12.6803 25.3606 0
882 1 12.6803 25.3606 6.34016
883 1 12.6803 25.3606 12.6803
884 1 12.6803 25.3606 19.0205
885 1 12.6803 25.3606 25.3606
886 1 12.6803 25.3606 31.7008
887 1 12.6803 25.3606 38.0409
888 1 12.6803 25.3606 44.3811
889 1 12.6803 25.3606 50.7213
890 1 12.6803 25.3606 57.0614
891 1 12.6803 25.3606 63.4016
892 1 12.6803 25.3606 69.7417
893 1 12.6803 25.3606 76.0819
894 1 12.6803 25.3606 82.422
895 1 12.6803 25.3606 88.7622
896 1 12.6803 25.3606 95.1023
897 1 12.6803 25.3606 101.443
898 1 12.6803 25.3606 107.783
899 1 12.6803 25.3606 114.123
900 1 12.6803 25.3606 120.463
901 1 12.6803 31.7008 0
902 1 12.6803 31.7008 6.34016
903 1 12.6803 31.7008 12.6803
904 1 12.6803 31.7008 19.0205
905 1 12.6803 31.7008 25.3606
906 1 12.6803 31.7008 31.7008
907 1 12.6803 31.7008 38.0409
908 1 12.6803 31.7008 44.3811
909 1 12.6803 31.7008 50.7213
910 1 12.6803 31.7008 57.0614
911 1 12.6803 31.7008 63.4016
912 1 12.6803 31.7008 69.7417
913 1 12.6803 31.7008 76.0819
914 1 12.6803 31.7008 82.422
915 1 12.6803 31.7008 88.7622
916 1 12.6803 31.7008 95.1023
917 1 12.6803 31.7008 101.443
918 1 12.6803 31.7008 107.783
919 1 12.6803 31.7008 114.123
920 1 12.6803 31.7008 120.463
921 1 12.6803 38.0409 0
922 1 12.6803 38.0409 6.34016
923 1 12.6803 38.0409 12.6803
924 1 12.6803 38.0409 19.0205
925 1 12.6803 38.0409 25.3606
926 1 12.6803 38.0409 31.7008
927 1 12.6803 38.0409 38.0409
928 1 12.6803 38.0409 44.3811
929 1 12.6803 38.0409 50.7213
930 1 12.6803 38.0409 57.0614
931 1 12.6803 38.0409 63.4016
932 1 12.6803 38.0409 69.7417
933 1 12.6803 38.0409 76.0819
934 1 12.6803 38.0409 82.422
935 1 12.6803 38.0409 88.7622
936 1 12.6803 38.0409 95.1023
937 1 12.6803 38.0409 101.443
938 1 12.6803 38.0409 107.783
939 1 12.6803 38.0409 114.123
940 1 12.6803 38.0409 120.463
941 1 12.6803 44.3811 0
942 1 12.6803 44.3811 6.34016
943 1 12.6803 44.3811 12.6803
944 1 12.6803 44.3811 19.0205
945 1 12.6803 44.3811 25.3606
946 1 12.6803 44.3811 31.7008
947 1 12.6803 44.3811 38.0409
948 1 12.6803 44.3811 44.3811
949 1 12.6803 44.3811 50.7213
950 1 12.6803 44.3811 57.0614
951 1 12.6803 44.3811 63.4016
952 1 12.6803 44.3811 69.7417
953 1 12.6803 44.3811 76.0819
954 1 12.6803 44.3811 82.422
955 1 12.6803 44.3811 88.7622
956 1 12.6803 44.3811 95.1023
957 1 12.6803 44.3811 101.443
958 1 12.6803 44.3811 107.783
959 1 12.6803 44.3811 114.123
960 1 12.6803 44.3811 120.463
961 1 12.6803 50.7213 0
962 1 12.6803 50.7213 6.34016
963 1 12.6803 50.7213 12.6803
964 1 12.6803 50.7213 19.0205
965 1 12.6803 50.7213 25.3606
966 1 12.6803 50.7213 31.7008
967 1 12.6803 50.7213 38.0409
968 1 12.6803 50.7213 44.3811
969 1 12.6803 50.7213 50.7213
970 1 12.6803 50.7213 57.0614
971 1 12.6803 50.7213 63.4016
972 1 12.6803 50.7213 69.7417
973 1 12.6803 50.7213 76.0819
974 1 12.6803 50.7213 82.422
975 1 12.6803 50.7213 88.7622
976 1 12.6803 50.7213 95.1023
977 1 12.6803 50.7213 101.443
978 1 12.6803 50.7213 107.783
979 1 12.6803 50.7213 114.123
980 1 12.6803 50.7213 120.463
981 1 12.6803 57.0614 0
982 1 12.6803 57.0614 6.34016
983 1 12.6803 57.0614 12.6803
984 1 12.6803 57.0614 19.0205
985 1 12.6803 57.0614 25.3606
986 1 12.6803 57.0614 31.7008
987 1 12.6803 57.0614 38.0409
988 1 12.6803 57.0614 44.3811
989 1 12.6803 57.0614 50.7213
990 1 12.6803 57.0614 57.0614
991 1 12.6803 57.0614 63.4016
992 1 12.6803 57.0614 69.7417
993 1 12.6803 57.0614 76.0819
994 1 12.6803 57.0614 82.422
995 1 12.6803 57.0614 88.7622
996 1 12.6803 57.0614 95.1023
997 1 12.6803 57.0614 101.443
998 1 12.6803 57.0614 107.783
999 1 12.6803 57.0614 114.123
1000 1 12.6803 57.0614 120.463
1001 1 12.6803 63.4016 0
1002 1 12.6803 63.4016 6.34016
1003 1 12.6803 63.4016 12.6803
1004 1 12.6803 63.4016 19.0205
1005 1 12.6803 63.4016 25.3606
1006 1 12.6803 63.4016 31.7008
1007 1 12.6803 63.4016 38.0409
1008 1 12.6803 63.4016 44.3811
1009 1 12.6803 63.4016 50.7213
1010 1 12.6803 63.4016 57.0614
1011 1 12.6803 63.4016 63.4016
1012 1 12.6803 63.4016 69.7417
1013 1 12.6803 63.4016 76.0819
1014 1 12.6803 63.4016 82.422
1015 1 12.6803 63.4016 88.7622
1016 1 12.6803 63.4016 95.1023
1017 1 12.6803 63.4016 101.443
1018 1 12.6803 63.4016 107.783
1019 1 12.6803 63.4016 114.123
1020 1 12.6803 63.4016 120.463
1021 1 12.6803 69.7417 0
1022 1 12.6803 69.7417 6.34016
1023 1 12.6803 69.7417 12.6803
1024 1 12.6803 69.7417 19.0205
1025 1 12.6803 69.7417 25.3606
1026 1 12.6803 69.7417 31.7008
1027 1 12.6803 69.7417 38.0409
1028 1 12.6803 69.7417 44.3811
1029 1 12.6803 69.7417 50.7213
1030 1 12.6803 69.7417 57.0614
1031 1 12.6803 69.7417 63.4016
1032 1 12.6803 69.7417 69.7417
1033 1 12.6803 69.7417 76.0819
1034 1 12.6803 69.7417 82.422
1035 1 12.6803 69.7417 88.7622
1036 1 12.6803 69.7417 95.1023
1037 1 12.6803 69.7417 101.443
1038 1 12.6803 69.7417 107.783
1039 1 12.6803 69.7417 114.123
1040 1 12.6803 69.7417 120.463
1041 1 12.6803 76.0819 0
1042 1 12.6803 76.0819 6.34016
1043 1 12.6803 76.0819 12.6803
1044 1 12.6803 76.0819 19.0205
1045 1 12.6803 76.0819 25.3606
1046 1 12.6803 76.0819 31.7008
1047 1 12.6803 76.0819 38.0409
1048 1 12.6803 76.0819 44.3811
1049 1 12.6803 76.0819 50.7213
1050 1 12.6803 76.0819 57.0614
1051 1 12.6803 76.0819 63.4016
1052 1 12.6803 76.0819 69.7417
1053 1 12.6803 76.0819 76.0819
1054 1 12.6803 76.0819 82.422
1055 1 12.6803 76.0819 88.7622
1056 1 12.6803 76.0819 95.1023
1057 1 12.6803 76.0819 101.443
1058 1 12.6803 76.0819 107.783
1059 1 12.6803 76.0819 114.123
1060 1 12.6803 76.0819 120.463
1061 1 12.6803 82.422 0
1062 1 12.6803 82.422 6.34016
1063 1 12.6803 82.422 12.6803
1064 1 12.6803 82.422 19.0205
1065 1 12.6803 82.422 25.3606
1066 1 12.6803 82.422 31.7008
1067 1 12.6803 82.422 38.0409
1068 1 12.6803 82.422 44.3811
1069 1 12.6803 82.422 50.7213
1070 1 12.6803 82.422 57.0614
1071 1 12.6803 82.422 63.4016
1072 1 12.6803 82.422 69.7417
1073 1 12.6803 82.422 76.0819
1074 1 12.6803 82.422 82.422
1075 1 12.6803 82.422 88.7622
1076 1 12.6803 82.422 95.1023
1077 1 12.6803 82.422 101.443
1078 1 12.6803 82.422 107.783
1079 1 12.6803 82.422 114.123
1080 1 12.6803 82.422 120.463
1081 1 12.6803 88.7622 0
1082 1 12.6803 88.7622 6.34016
1083 1 12.6803 88.7622 12.6803
1084 1 12.6803 88.7622 19.0205
1085 1 12.6803 88.7622 25.3606
1086 1 12.6803 88.7622 31.7008
1087 1 12.6803 88.7622 38.0409
1088 1 12.6803 88.7622 44.3811
1089 1 12.6803 88.7622 50.7213
1090 1 12.6803 88.7622 57.0614
1091 1 12.6803 88.7622 63.4016
1092 1 12.6803 88.7622 69.7417
1093 1 12.6803 88.7622 76.0819
1094 1 12.6803 88.7622 82.422
1095 1 12.6803 88.7622 88.7622
1096 1 12.6803 88.7622 95.1023
1097 1 12.6803 88.7622 101.443
1098 1 12.6803 88.7622 107.783
1099 1 12.6803 88.7622 114.123