 # Lithium lanthanum ti
 
        2488  atoms
           4  atom types
 
      0.000000000000      30.929759980000  xlo xhi
      0.000000000000      30.929759980000  ylo yhi
      0.000000000000      31.101200100000  zlo zhi
 
Masses
 
            1   138.90547000            # La
            2   47.86700000             # Ti
            3   15.99900000             # O
            4   6.94000000              # Li
 
Atoms # atomic
 
         1    1        3.866219997500       3.866219997500       0.000000000000
         2    1        3.866219997500       3.866219997500      15.550600050000
         3    1        3.866219997500      19.331099987500       0.000000000000
         4    1        3.866219997500      19.331099987500      15.550600050000
         5    1       19.331099987500       3.866219997500       0.000000000000
         6    1       19.331099987500       3.866219997500      15.550600050000
         7    1       19.331099987500      19.331099987500       0.000000000000
         8    1       19.331099987500      19.331099987500      15.550600050000
         9    1        7.732439995000       7.732439995000       0.000000000000
        10    1        7.732439995000       7.732439995000      15.550600050000
        11    1        7.732439995000      23.197319985000       0.000000000000
        12    1        7.732439995000      23.197319985000      15.550600050000
        13    1       23.197319985000       7.732439995000       0.000000000000
        14    1       23.197319985000       7.732439995000      15.550600050000
        15    1       23.197319985000      23.197319985000       0.000000000000
        16    1       23.197319985000      23.197319985000      15.550600050000
        17    1       11.598659992500       7.732439995000       7.775300025000
        18    1       11.598659992500       7.732439995000      23.325900075000
        19    1       11.598659992500      23.197319985000       7.775300025000
        20    1       11.598659992500      23.197319985000      23.325900075000
        21    1       27.063539982500       7.732439995000       7.775300025000
        22    1       27.063539982500       7.732439995000      23.325900075000
        23    1       27.063539982500      23.197319985000       7.775300025000
        24    1       27.063539982500      23.197319985000      23.325900075000
        25    1        0.000000000000      11.598659992500       7.775300025000
        26    1        0.000000000000      11.598659992500      23.325900075000
        27    1        0.000000000000      27.063539982500       7.775300025000
        28    1        0.000000000000      27.063539982500      23.325900075000
        29    1       15.464879990000      11.598659992500       7.775300025000
        30    1       15.464879990000      11.598659992500      23.325900075000
        31    1       15.464879990000      27.063539982500       7.775300025000
        32    1       15.464879990000      27.063539982500      23.325900075000
        33    1       11.598659992500       3.866219997500       0.000000000000
        34    1       11.598659992500       3.866219997500      15.550600050000
        35    1       11.598659992500      19.331099987500       0.000000000000
        36    1       11.598659992500      19.331099987500      15.550600050000
        37    1       27.063539982500       3.866219997500       0.000000000000
        38    1       27.063539982500       3.866219997500      15.550600050000
        39    1       27.063539982500      19.331099987500       0.000000000000
        40    1       27.063539982500      19.331099987500      15.550600050000
        41    1        7.732439995000      11.598659992500       7.775300025000
        42    1        7.732439995000      11.598659992500      23.325900075000
        43    1        7.732439995000      27.063539982500       7.775300025000
        44    1        7.732439995000      27.063539982500      23.325900075000
        45    1       23.197319985000      11.598659992500       7.775300025000
        46    1       23.197319985000      11.598659992500      23.325900075000
        47    1       23.197319985000      27.063539982500       7.775300025000
        48    1       23.197319985000      27.063539982500      23.325900075000
        49    1        3.866219997500      11.598659992500       0.000000000000
        50    1        3.866219997500      11.598659992500      15.550600050000
        51    1        3.866219997500      27.063539982500       0.000000000000
        52    1        3.866219997500      27.063539982500      15.550600050000
        53    1       19.331099987500      11.598659992500       0.000000000000
        54    1       19.331099987500      11.598659992500      15.550600050000
        55    1       19.331099987500      27.063539982500       0.000000000000
        56    1       19.331099987500      27.063539982500      15.550600050000
        57    1       11.598659992500       0.000000000000       0.000000000000
        58    1       11.598659992500       0.000000000000      15.550600050000
        59    1       11.598659992500      15.464879990000       0.000000000000
        60    1       11.598659992500      15.464879990000      15.550600050000
        61    1       27.063539982500       0.000000000000       0.000000000000
        62    1       27.063539982500       0.000000000000      15.550600050000
        63    1       27.063539982500      15.464879990000       0.000000000000
        64    1       27.063539982500      15.464879990000      15.550600050000
        65    1        0.000000000000       0.000000000000       7.775300025000
        66    1        0.000000000000       0.000000000000      23.325900075000
        67    1        0.000000000000      15.464879990000       7.775300025000
        68    1        0.000000000000      15.464879990000      23.325900075000
        69    1       15.464879990000       0.000000000000       7.775300025000
        70    1       15.464879990000       0.000000000000      23.325900075000
        71    1       15.464879990000      15.464879990000       7.775300025000
        72    1       15.464879990000      15.464879990000      23.325900075000
        73    1        0.000000000000      11.598659992500       0.000000000000
        74    1        0.000000000000      11.598659992500      15.550600050000
        75    1        0.000000000000      27.063539982500       0.000000000000
        76    1        0.000000000000      27.063539982500      15.550600050000
        77    1       15.464879990000      11.598659992500       0.000000000000
        78    1       15.464879990000      11.598659992500      15.550600050000
        79    1       15.464879990000      27.063539982500       0.000000000000
        80    1       15.464879990000      27.063539982500      15.550600050000
        81    1        0.000000000000       3.866219997500       7.775300025000
        82    1        0.000000000000       3.866219997500      23.325900075000
        83    1        0.000000000000      19.331099987500       7.775300025000
        84    1        0.000000000000      19.331099987500      23.325900075000
        85    1       15.464879990000       3.866219997500       7.775300025000
        86    1       15.464879990000       3.866219997500      23.325900075000
        87    1       15.464879990000      19.331099987500       7.775300025000
        88    1       15.464879990000      19.331099987500      23.325900075000
        89    1        3.866219997500       0.000000000000       0.000000000000
        90    1        3.866219997500       0.000000000000      15.550600050000
        91    1        3.866219997500      15.464879990000       0.000000000000
        92    1        3.866219997500      15.464879990000      15.550600050000
        93    1       19.331099987500       0.000000000000       0.000000000000
        94    1       19.331099987500       0.000000000000      15.550600050000
        95    1       19.331099987500      15.464879990000       0.000000000000
        96    1       19.331099987500      15.464879990000      15.550600050000
        97    1        7.732439995000       3.866219997500       0.000000000000
        98    1        7.732439995000       3.866219997500      15.550600050000
        99    1        7.732439995000      19.331099987500       0.000000000000
       100    1        7.732439995000      19.331099987500      15.550600050000
       101    1       23.197319985000       3.866219997500       0.000000000000
       102    1       23.197319985000       3.866219997500      15.550600050000
       103    1       23.197319985000      19.331099987500       0.000000000000
       104    1       23.197319985000      19.331099987500      15.550600050000
       105    1       11.598659992500       7.732439995000       0.000000000000
       106    1       11.598659992500       7.732439995000      15.550600050000
       107    1       11.598659992500      23.197319985000       0.000000000000
       108    1       11.598659992500      23.197319985000      15.550600050000
       109    1       27.063539982500       7.732439995000       0.000000000000
       110    1       27.063539982500       7.732439995000      15.550600050000
       111    1       27.063539982500      23.197319985000       0.000000000000
       112    1       27.063539982500      23.197319985000      15.550600050000
       113    1        0.000000000000       7.732439995000       7.775300025000
       114    1        0.000000000000       7.732439995000      23.325900075000
       115    1        0.000000000000      23.197319985000       7.775300025000
       116    1        0.000000000000      23.197319985000      23.325900075000
       117    1       15.464879990000       7.732439995000       7.775300025000
       118    1       15.464879990000       7.732439995000      23.325900075000
       119    1       15.464879990000      23.197319985000       7.775300025000
       120    1       15.464879990000      23.197319985000      23.325900075000
       121    1        7.732439995000       3.866219997500       7.775300025000
       122    1        7.732439995000       3.866219997500      23.325900075000
       123    1        7.732439995000      19.331099987500       7.775300025000
       124    1        7.732439995000      19.331099987500      23.325900075000
       125    1       23.197319985000       3.866219997500       7.775300025000
       126    1       23.197319985000       3.866219997500      23.325900075000
       127    1       23.197319985000      19.331099987500       7.775300025000
       128    1       23.197319985000      19.331099987500      23.325900075000
       129    1        3.866219997500      11.598659992500       7.775300025000
       130    1        3.866219997500      11.598659992500      23.325900075000
       131    1        3.866219997500      27.063539982500       7.775300025000
       132    1        3.866219997500      27.063539982500      23.325900075000
       133    1       19.331099987500      11.598659992500       7.775300025000
       134    1       19.331099987500      11.598659992500      23.325900075000
       135    1       19.331099987500      27.063539982500       7.775300025000
       136    1       19.331099987500      27.063539982500      23.325900075000
       137    1        3.866219997500       7.732439995000       0.000000000000
       138    1        3.866219997500       7.732439995000      15.550600050000
       139    1        3.866219997500      23.197319985000       0.000000000000
       140    1        3.866219997500      23.197319985000      15.550600050000
       141    1       19.331099987500       7.732439995000       0.000000000000
       142    1       19.331099987500       7.732439995000      15.550600050000
       143    1       19.331099987500      23.197319985000       0.000000000000
       144    1       19.331099987500      23.197319985000      15.550600050000
       145    1        7.732439995000      11.598659992500       0.000000000000
       146    1        7.732439995000      11.598659992500      15.550600050000
       147    1        7.732439995000      27.063539982500       0.000000000000
       148    1        7.732439995000      27.063539982500      15.550600050000
       149    1       23.197319985000      11.598659992500       0.000000000000
       150    1       23.197319985000      11.598659992500      15.550600050000
       151    1       23.197319985000      27.063539982500       0.000000000000
       152    1       23.197319985000      27.063539982500      15.550600050000
       153    1        0.000000000000       0.000000000000       0.000000000000
       154    1        0.000000000000       0.000000000000      15.550600050000
       155    1        0.000000000000      15.464879990000       0.000000000000
       156    1        0.000000000000      15.464879990000      15.550600050000
       157    1       15.464879990000       0.000000000000       0.000000000000
       158    1       15.464879990000       0.000000000000      15.550600050000
       159    1       15.464879990000      15.464879990000       0.000000000000
       160    1       15.464879990000      15.464879990000      15.550600050000
       161    1       11.598659992500      11.598659992500       7.775300025000
       162    1       11.598659992500      11.598659992500      23.325900075000
       163    1       11.598659992500      27.063539982500       7.775300025000
       164    1       11.598659992500      27.063539982500      23.325900075000
       165    1       27.063539982500      11.598659992500       7.775300025000
       166    1       27.063539982500      11.598659992500      23.325900075000
       167    1       27.063539982500      27.063539982500       7.775300025000
       168    1       27.063539982500      27.063539982500      23.325900075000
       169    1        7.732439995000       0.000000000000       0.000000000000
       170    1        7.732439995000       0.000000000000      15.550600050000
       171    1        7.732439995000      15.464879990000       0.000000000000
       172    1        7.732439995000      15.464879990000      15.550600050000
       173    1       23.197319985000       0.000000000000       0.000000000000
       174    1       23.197319985000       0.000000000000      15.550600050000
       175    1       23.197319985000      15.464879990000       0.000000000000
       176    1       23.197319985000      15.464879990000      15.550600050000
       177    1        0.000000000000       7.732439995000       0.000000000000
       178    1        0.000000000000       7.732439995000      15.550600050000
       179    1        0.000000000000      23.197319985000       0.000000000000
       180    1        0.000000000000      23.197319985000      15.550600050000
       181    1       15.464879990000       7.732439995000       0.000000000000
       182    1       15.464879990000       7.732439995000      15.550600050000
       183    1       15.464879990000      23.197319985000       0.000000000000
       184    1       15.464879990000      23.197319985000      15.550600050000
       185    1        3.866219997500       3.866219997500       7.775300025000
       186    1        3.866219997500       3.866219997500      23.325900075000
       187    1        3.866219997500      19.331099987500       7.775300025000
       188    1        3.866219997500      19.331099987500      23.325900075000
       189    1       19.331099987500       3.866219997500       7.775300025000
       190    1       19.331099987500       3.866219997500      23.325900075000
       191    1       19.331099987500      19.331099987500       7.775300025000
       192    1       19.331099987500      19.331099987500      23.325900075000
       193    1       11.598659992500      11.598659992500       0.000000000000
       194    1       11.598659992500      11.598659992500      15.550600050000
       195    1       11.598659992500      27.063539982500       0.000000000000
       196    1       11.598659992500      27.063539982500      15.550600050000
       197    1       27.063539982500      11.598659992500       0.000000000000
       198    1       27.063539982500      11.598659992500      15.550600050000
       199    1       27.063539982500      27.063539982500       0.000000000000
       200    1       27.063539982500      27.063539982500      15.550600050000
       201    1        7.732439995000       0.000000000000       7.775300025000
       202    1        7.732439995000       0.000000000000      23.325900075000
       203    1        7.732439995000      15.464879990000       7.775300025000
       204    1        7.732439995000      15.464879990000      23.325900075000
       205    1       23.197319985000       0.000000000000       7.775300025000
       206    1       23.197319985000       0.000000000000      23.325900075000
       207    1       23.197319985000      15.464879990000       7.775300025000
       208    1       23.197319985000      15.464879990000      23.325900075000
       209    1        0.000000000000       3.866219997500       0.000000000000
       210    1        0.000000000000       3.866219997500      15.550600050000
       211    1        0.000000000000      19.331099987500       0.000000000000
       212    1        0.000000000000      19.331099987500      15.550600050000
       213    1       15.464879990000       3.866219997500       0.000000000000
       214    1       15.464879990000       3.866219997500      15.550600050000
       215    1       15.464879990000      19.331099987500       0.000000000000
       216    1       15.464879990000      19.331099987500      15.550600050000
       217    1        3.866219997500       0.000000000000       7.775300025000
       218    1        3.866219997500       0.000000000000      23.325900075000
       219    1        3.866219997500      15.464879990000       7.775300025000
       220    1        3.866219997500      15.464879990000      23.325900075000
       221    1       19.331099987500       0.000000000000       7.775300025000
       222    1       19.331099987500       0.000000000000      23.325900075000
       223    1       19.331099987500      15.464879990000       7.775300025000
       224    1       19.331099987500      15.464879990000      23.325900075000
       225    1        3.866219997500       7.732439995000       7.775300025000
       226    1        3.866219997500       7.732439995000      23.325900075000
       227    1        3.866219997500      23.197319985000       7.775300025000
       228    1        3.866219997500      23.197319985000      23.325900075000
       229    1       19.331099987500       7.732439995000       7.775300025000
       230    1       19.331099987500       7.732439995000      23.325900075000
       231    1       19.331099987500      23.197319985000       7.775300025000
       232    1       19.331099987500      23.197319985000      23.325900075000
       233    1       11.598659992500       3.866219997500       7.775300025000
       234    1       11.598659992500       3.866219997500      23.325900075000
       235    1       11.598659992500      19.331099987500       7.775300025000
       236    1       11.598659992500      19.331099987500      23.325900075000
       237    1       27.063539982500       3.866219997500       7.775300025000
       238    1       27.063539982500       3.866219997500      23.325900075000
       239    1       27.063539982500      19.331099987500       7.775300025000
       240    1       27.063539982500      19.331099987500      23.325900075000
       241    1       11.598659992500       3.866219997500      11.662950037500
       242    1       11.598659992500       3.866219997500      27.213550087500
       243    1       11.598659992500      19.331099987500      11.662950037500
       244    1       11.598659992500      19.331099987500      27.213550087500
       245    1       27.063539982500       3.866219997500      11.662950037500
       246    1       27.063539982500       3.866219997500      27.213550087500
       247    1       27.063539982500      19.331099987500      11.662950037500
       248    1       27.063539982500      19.331099987500      27.213550087500
       249    1       11.598659992500      11.598659992500      11.662950037500
       250    1       11.598659992500      11.598659992500      27.213550087500
       251    1       11.598659992500      27.063539982500      11.662950037500
       252    1       11.598659992500      27.063539982500      27.213550087500
       253    1       27.063539982500      11.598659992500      11.662950037500
       254    1       27.063539982500      11.598659992500      27.213550087500
       255    1       27.063539982500      27.063539982500      11.662950037500
       256    1       27.063539982500      27.063539982500      27.213550087500
       257    1       11.598659992500       0.000000000000       3.887650012500
       258    1       11.598659992500       0.000000000000      19.438250062500
       259    1       11.598659992500      15.464879990000       3.887650012500
       260    1       11.598659992500      15.464879990000      19.438250062500
       261    1       27.063539982500       0.000000000000       3.887650012500
       262    1       27.063539982500       0.000000000000      19.438250062500
       263    1       27.063539982500      15.464879990000       3.887650012500
       264    1       27.063539982500      15.464879990000      19.438250062500
       265    1        7.732439995000       7.732439995000      11.662950037500
       266    1        7.732439995000       7.732439995000      27.213550087500
       267    1        7.732439995000      23.197319985000      11.662950037500
       268    1        7.732439995000      23.197319985000      27.213550087500
       269    1       23.197319985000       7.732439995000      11.662950037500
       270    1       23.197319985000       7.732439995000      27.213550087500
       271    1       23.197319985000      23.197319985000      11.662950037500
       272    1       23.197319985000      23.197319985000      27.213550087500
       273    1        3.866219997500       3.866219997500      11.662950037500
       274    1        3.866219997500       3.866219997500      27.213550087500
       275    1        3.866219997500      19.331099987500      11.662950037500
       276    1        3.866219997500      19.331099987500      27.213550087500
       277    1       19.331099987500       3.866219997500      11.662950037500
       278    1       19.331099987500       3.866219997500      27.213550087500
       279    1       19.331099987500      19.331099987500      11.662950037500
       280    1       19.331099987500      19.331099987500      27.213550087500
       281    1        3.866219997500       0.000000000000       3.887650012500
       282    1        3.866219997500       0.000000000000      19.438250062500
       283    1        3.866219997500      15.464879990000       3.887650012500
       284    1        3.866219997500      15.464879990000      19.438250062500
       285    1       19.331099987500       0.000000000000       3.887650012500
       286    1       19.331099987500       0.000000000000      19.438250062500
       287    1       19.331099987500      15.464879990000       3.887650012500
       288    1       19.331099987500      15.464879990000      19.438250062500
       289    1        0.000000000000       7.732439995000       3.887650012500
       290    1        0.000000000000       7.732439995000      19.438250062500
       291    1        0.000000000000      23.197319985000       3.887650012500
       292    1        0.000000000000      23.197319985000      19.438250062500
       293    1       15.464879990000       7.732439995000       3.887650012500
       294    1       15.464879990000       7.732439995000      19.438250062500
       295    1       15.464879990000      23.197319985000       3.887650012500
       296    1       15.464879990000      23.197319985000      19.438250062500
       297    2        1.933109998750       1.933109998750       1.869182126010
       298    2        1.933109998750       1.933109998750      17.419782176010
       299    2        1.933109998750      17.397989988750       1.869182126010
       300    2        1.933109998750      17.397989988750      17.419782176010
       301    2       17.397989988750       1.933109998750       1.869182126010
       302    2       17.397989988750       1.933109998750      17.419782176010
       303    2       17.397989988750      17.397989988750       1.869182126010
       304    2       17.397989988750      17.397989988750      17.419782176010
       305    2        1.933109998750       1.933109998750       9.644482151010
       306    2        1.933109998750       1.933109998750      25.195082201010
       307    2        1.933109998750      17.397989988750       9.644482151010
       308    2        1.933109998750      17.397989988750      25.195082201010
       309    2       17.397989988750       1.933109998750       9.644482151010
       310    2       17.397989988750       1.933109998750      25.195082201010
       311    2       17.397989988750      17.397989988750       9.644482151010
       312    2       17.397989988750      17.397989988750      25.195082201010
       313    2        1.933109998750       5.799329996250       1.869182126010
       314    2        1.933109998750       5.799329996250      17.419782176010
       315    2        1.933109998750      21.264209986250       1.869182126010
       316    2        1.933109998750      21.264209986250      17.419782176010
       317    2       17.397989988750       5.799329996250       1.869182126010
       318    2       17.397989988750       5.799329996250      17.419782176010
       319    2       17.397989988750      21.264209986250       1.869182126010
       320    2       17.397989988750      21.264209986250      17.419782176010
       321    2        1.933109998750       5.799329996250       9.644482151010
       322    2        1.933109998750       5.799329996250      25.195082201010
       323    2        1.933109998750      21.264209986250       9.644482151010
       324    2        1.933109998750      21.264209986250      25.195082201010
       325    2       17.397989988750       5.799329996250       9.644482151010
       326    2       17.397989988750       5.799329996250      25.195082201010
       327    2       17.397989988750      21.264209986250       9.644482151010
       328    2       17.397989988750      21.264209986250      25.195082201010
       329    2        1.933109998750       9.665549993750       1.869182126010
       330    2        1.933109998750       9.665549993750      17.419782176010
       331    2        1.933109998750      25.130429983750       1.869182126010
       332    2        1.933109998750      25.130429983750      17.419782176010
       333    2       17.397989988750       9.665549993750       1.869182126010
       334    2       17.397989988750       9.665549993750      17.419782176010
       335    2       17.397989988750      25.130429983750       1.869182126010
       336    2       17.397989988750      25.130429983750      17.419782176010
       337    2        1.933109998750       9.665549993750       9.644482151010
       338    2        1.933109998750       9.665549993750      25.195082201010
       339    2        1.933109998750      25.130429983750       9.644482151010
       340    2        1.933109998750      25.130429983750      25.195082201010
       341    2       17.397989988750       9.665549993750       9.644482151010
       342    2       17.397989988750       9.665549993750      25.195082201010
       343    2       17.397989988750      25.130429983750       9.644482151010
       344    2       17.397989988750      25.130429983750      25.195082201010
       345    2        1.933109998750      13.531769991250       1.869182126010
       346    2        1.933109998750      13.531769991250      17.419782176010
       347    2        1.933109998750      28.996649981250       1.869182126010
       348    2        1.933109998750      28.996649981250      17.419782176010
       349    2       17.397989988750      13.531769991250       1.869182126010
       350    2       17.397989988750      13.531769991250      17.419782176010
       351    2       17.397989988750      28.996649981250       1.869182126010
       352    2       17.397989988750      28.996649981250      17.419782176010
       353    2        1.933109998750      13.531769991250       9.644482151010
       354    2        1.933109998750      13.531769991250      25.195082201010
       355    2        1.933109998750      28.996649981250       9.644482151010
       356    2        1.933109998750      28.996649981250      25.195082201010
       357    2       17.397989988750      13.531769991250       9.644482151010
       358    2       17.397989988750      13.531769991250      25.195082201010
       359    2       17.397989988750      28.996649981250       9.644482151010
       360    2       17.397989988750      28.996649981250      25.195082201010
       361    2        5.799329996250       1.933109998750       1.869182126010
       362    2        5.799329996250       1.933109998750      17.419782176010
       363    2        5.799329996250      17.397989988750       1.869182126010
       364    2        5.799329996250      17.397989988750      17.419782176010
       365    2       21.264209986250       1.933109998750       1.869182126010
       366    2       21.264209986250       1.933109998750      17.419782176010
       367    2       21.264209986250      17.397989988750       1.869182126010
       368    2       21.264209986250      17.397989988750      17.419782176010
       369    2        5.799329996250       1.933109998750       9.644482151010