nqpoint: 2      
npath: 1      
segment_nqpoint:
- 2
reciprocal_lattice:
- [   0.18920867,   0.10923968,   0.00000000 ] # a*
- [   0.00000000,   0.21847935,   0.00000000 ] # b*
- [   0.00000000,   0.00000000,   0.08713627 ] # c*
natom: 21     
lattice:
- [     5.285170079999999,     0.000000000000000,     0.000000000000000 ] # a
- [    -2.642585039999999,     4.577091552601432,     0.000000000000000 ] # b
- [     0.000000000000000,     0.000000000000000,    11.476277400000001 ] # c
points:
- symbol: Li # 1
  coordinates: [  0.000000000000000,  0.000000000000000,  0.000000000000000 ]
  mass: 6.941000
- symbol: Li # 2
  coordinates: [  0.000000000000000,  0.000000000000000,  0.333333333333336 ]
  mass: 6.941000
- symbol: Li # 3
  coordinates: [  0.000000000000000,  0.000000000000000,  0.666666666666664 ]
  mass: 6.941000
- symbol: O  # 4
  coordinates: [  0.205359828490742,  0.399282424697027,  0.744345304633853 ]
  mass: 15.999400
- symbol: O  # 5
  coordinates: [  0.600717575302973,  0.806077403793708,  0.077678637967182 ]
  mass: 15.999400
- symbol: O  # 6
  coordinates: [  0.193922596206292,  0.794640171509258,  0.411011971300518 ]
  mass: 15.999400
- symbol: O  # 7
  coordinates: [  0.794640171509258,  0.600717575302973,  0.744345304633853 ]
  mass: 15.999400
- symbol: O  # 8
  coordinates: [  0.399282424697027,  0.193922596206292,  0.077678637967182 ]
  mass: 15.999400
- symbol: O  # 9
  coordinates: [  0.806077403793708,  0.205359828490742,  0.411011971300518 ]
  mass: 15.999400
- symbol: O  # 10
  coordinates: [  0.399282424697027,  0.205359828490742,  0.588988028699482 ]
  mass: 15.999400
- symbol: O  # 11
  coordinates: [  0.806077403793708,  0.600717575302973,  0.255654695366147 ]
  mass: 15.999400
- symbol: O  # 12
  coordinates: [  0.794640171509258,  0.193922596206292,  0.922321362032818 ]
  mass: 15.999400
- symbol: O  # 13
  coordinates: [  0.600717575302973,  0.794640171509258,  0.588988028699482 ]
  mass: 15.999400
- symbol: O  # 14
  coordinates: [  0.193922596206292,  0.399282424697027,  0.255654695366147 ]
  mass: 15.999400
- symbol: O  # 15
  coordinates: [  0.205359828490742,  0.806077403793708,  0.922321362032818 ]
  mass: 15.999400
- symbol: Al # 16
  coordinates: [  0.500000000000000,  0.000000000000000,  0.500000000000000 ]
  mass: 26.981539
- symbol: Al # 17
  coordinates: [  0.000000000000000,  0.500000000000000,  0.833333333333336 ]
  mass: 26.981539
- symbol: Al # 18
  coordinates: [  0.500000000000000,  0.500000000000000,  0.166666666666664 ]
  mass: 26.981539
- symbol: Si # 19
  coordinates: [  0.500000000000000,  0.000000000000000,  0.000000000000000 ]
  mass: 28.085500
- symbol: Si # 20
  coordinates: [  0.000000000000000,  0.500000000000000,  0.333333333333336 ]
  mass: 28.085500
- symbol: Si # 21
  coordinates: [  0.500000000000000,  0.500000000000000,  0.666666666666664 ]
  mass: 28.085500
supercell_matrix:
- [    9,    0,    0 ]
- [    0,    9,    0 ]
- [    0,    0,    4 ]

phonon:
- q-position: [    0.3333333,    0.3333333,    0.0000000 ]
  distance:    0.0000000
  band:
  - # 1
    frequency:    2.3845619442
    group_velocity: [    -0.0000021,    -0.0000037,     0.0000000 ]
    eigenvector:
    - # atom 1
      - [ -0.00000000898072,  0.00000000000000 ]
      - [  0.01350368594240, -0.00000000005094 ]
      - [ -0.00000000024003, -0.06363331728701 ]
    - # atom 2
      - [ -0.01169453956120,  0.00000000004411 ]
      - [ -0.00675183519366,  0.00000000002547 ]
      - [ -0.00000000024003, -0.06363331728701 ]
    - # atom 3
      - [  0.01169458142376, -0.00000000004411 ]
      - [ -0.00675186973307,  0.00000000002547 ]
      - [ -0.00000000024003, -0.06363338735147 ]
    - # atom 4
      - [  0.02867343115981, -0.00263065488479 ]
      - [ -0.11118010501009,  0.02229546772003 ]
      - [  0.10412173365447, -0.16542888356290 ]
    - # atom 5
      - [ -0.05543794554659,  0.06297515876834 ]
      - [ -0.05690849637946,  0.05838980778272 ]
      - [  0.01387957582957,  0.19497541127269 ]
    - # atom 6
      - [ -0.05043996696487, -0.10058953214886 ]
      - [  0.01703736007673,  0.02710089028243 ]
      - [  0.18778716189014,  0.05425898739178 ]
    - # atom 7
      - [  0.02867343117965,  0.00263065466847 ]
      - [ -0.11118010517829, -0.02229546688127 ]
      - [ -0.10412173490249, -0.16542888277739 ]
    - # atom 8
      - [ -0.05543794602169, -0.06297515835011 ]
      - [ -0.05690849681997, -0.05838980735340 ]
      - [ -0.01387957435864,  0.19497541137740 ]
    - # atom 9
      - [ -0.05043996620601,  0.10058953252938 ]
      - [  0.01703735987228, -0.02710089041097 ]
      - [ -0.18778716148080,  0.05425898880848 ]
    - # atom 10
      - [  0.11062151091406, -0.02062376887720 ]
      - [  0.03075813270699, -0.00886951990120 ]
      - [  0.10412173365447, -0.16542888356290 ]
    - # atom 11
      - [  0.02156523078249, -0.01907947747776 ]
      - [  0.07646491736670, -0.08373299119210 ]
      - [  0.01387957582957,  0.19497541127269 ]
    - # atom 12
      - [ -0.03997477012231, -0.07376482552419 ]
      - [  0.03516361271926,  0.07356264505448 ]
      - [  0.18778716189014,  0.05425898739178 ]
    - # atom 13
      - [  0.11062151106965,  0.02062376804265 ]
      - [  0.03075813277390,  0.00886951966915 ]
      - [ -0.10412173490250, -0.16542888277739 ]
    - # atom 14
      - [  0.02156523092643,  0.01907947731507 ]
      - [  0.07646491799840,  0.08373299061524 ]
      - [ -0.01387957435864,  0.19497541137740 ]
    - # atom 15
      - [ -0.03997476956581,  0.07376482582577 ]
      - [  0.03516361216429, -0.07356264531976 ]
      - [ -0.18778716148080,  0.05425898880848 ]
    - # atom 16
      - [  0.00000005830139,  0.00000000000000 ]
      - [  0.07855863953557, -0.00000000029633 ]
      - [ -0.00000000071384, -0.18924261489953 ]
    - # atom 17
      - [ -0.06803374837385,  0.00000000025663 ]
      - [ -0.03927937025827,  0.00000000014816 ]
      - [ -0.00000000071384, -0.18924261489953 ]
    - # atom 18
      - [ -0.06803378079014,  0.00000000025663 ]
      - [  0.03927932165318, -0.00000000014816 ]
      - [  0.00000000071384,  0.18924262045753 ]
    - # atom 19
      - [ -0.00000003774329, -0.00000000000000 ]
      - [ -0.06708475650407,  0.00000000025305 ]
      - [  0.00000000103328,  0.27392745024099 ]
    - # atom 20
      - [  0.05809708446757, -0.00000000021915 ]
      - [  0.03354241093869, -0.00000000012652 ]
      - [  0.00000000103328,  0.27392745024099 ]
    - # atom 21
      - [  0.05809710912336, -0.00000000021915 ]
      - [ -0.03354238159151,  0.00000000012652 ]
      - [ -0.00000000103328, -0.27392743589979 ]
  - # 2
    frequency:    3.0919601662
    group_velocity: [     0.0000032,     0.0000056,     0.0000000 ]
    eigenvector:
    - # atom 1
      - [ -0.00000000386397,  0.00000000000000 ]
      - [  0.11829483416416, -0.00000000944429 ]
      - [  0.00000001345963,  0.16858919453475 ]
    - # atom 2
      - [ -0.10244633345462,  0.00000000817899 ]
      - [ -0.05914741373578,  0.00000000472214 ]
      - [  0.00000001345963,  0.16858919453475 ]
    - # atom 3
      - [  0.10244628728408, -0.00000000817899 ]
      - [ -0.05914739154094,  0.00000000472214 ]
      - [  0.00000001345965,  0.16858935113889 ]
    - # atom 4
      - [  0.09006556705682,  0.01556292908617 ]
      - [ -0.02337349662386,  0.16802063079716 ]
      - [  0.14055949854911,  0.08655675164690 ]
    - # atom 5
      - [  0.11065091519160,  0.10894612822094 ]
      - [ -0.03060419602676,  0.10991706568380 ]
      - [ -0.16453330236557,  0.01333484662251 ]
    - # atom 6
      - [ -0.15041589349662, -0.02459811542996 ]
      - [  0.07532203449694, -0.09070750967281 ]
      - [ -0.04426470943210,  0.15902717627138 ]
    - # atom 7
      - [  0.09006556457183, -0.01556294346728 ]
      - [ -0.02337352345234, -0.16802062706502 ]
      - [ -0.14055948472827,  0.08655677409056 ]
    - # atom 8
      - [  0.11065089779577, -0.10894614588899 ]
      - [ -0.03060421357763, -0.10991706079712 ]
      - [  0.16453330449479,  0.01333482035087 ]
    - # atom 9
      - [ -0.15041588956894,  0.02459813944743 ]
      - [  0.07532204898054,  0.09070749764586 ]
      - [  0.04426473482456,  0.15902716920346 ]
    - # atom 10
      - [  0.06527482537994, -0.13772867008714 ]
      - [ -0.06631232076553, -0.09748820734450 ]
      - [  0.14055949854911,  0.08655675164691 ]
    - # atom 11
      - [  0.08182946881737, -0.04071790708114 ]
      - [ -0.08052440549454, -0.14930864752520 ]
      - [ -0.16453330236557,  0.01333484662251 ]
    - # atom 12
      - [ -0.14043874208739,  0.06625594997569 ]
      - [  0.09260296765254,  0.06665634768397 ]
      - [ -0.04426470943210,  0.15902717627138 ]
    - # atom 13
      - [  0.06527484737159,  0.13772865966447 ]
      - [ -0.06631230519922,  0.09748821793283 ]
      - [ -0.14055948472827,  0.08655677409056 ]
    - # atom 14
      - [  0.08182947531895,  0.04071789401513 ]
      - [ -0.08052438165388,  0.14930866038282 ]
      - [  0.16453330449479,  0.01333482035087 ]
    - # atom 15
      - [ -0.14043875266672, -0.06625592755132 ]
      - [  0.09260295700927, -0.06665636247023 ]
      - [  0.04426473482456,  0.15902716920346 ]
    - # atom 16
      - [ -0.00000008682631,  0.00000000000001 ]
      - [ -0.02829945080908,  0.00000000225934 ]
      - [  0.00000001418464,  0.17767036906637 ]
    - # atom 17
      - [  0.02450799990066, -0.00000000195664 ]
      - [  0.01414980059833, -0.00000000112967 ]
      - [  0.00000001418464,  0.17767036906637 ]
    - # atom 18
      - [  0.02450806044978, -0.00000000195665 ]
      - [ -0.01414973529800,  0.00000000112967 ]
      - [ -0.00000001418464, -0.17767036106252 ]
    - # atom 19
      - [ -0.00000001349748, -0.00000000000000 ]
      - [  0.00650670927372, -0.00000000051948 ]
      - [  0.00000000250720,  0.03140407480074 ]
    - # atom 20
      - [ -0.00563498227483,  0.00000000044988 ]
      - [ -0.00325334294770,  0.00000000025974 ]
      - [  0.00000000250720,  0.03140407480074 ]
    - # atom 21
      - [ -0.00563497641496,  0.00000000044988 ]
      - [  0.00325335515005, -0.00000000025974 ]
      - [ -0.00000000250721, -0.03140411567249 ]
  - # 3
    frequency:    3.8395753500
    group_velocity: [    -0.1737017,    -0.3008602,     0.0000000 ]
    eigenvector:
    - # atom 1
      - [ -0.04058090398534,  0.00000000000000 ]
      - [ -0.07993637643677,  0.00000000261880 ]
      - [  0.00000000322573,  0.09846213909223 ]
    - # atom 2
      - [  0.04893648342028,  0.00000000146634 ]
      - [  0.07511228299408,  0.00000000007902 ]
      - [ -0.00000000161286,  0.09846214263243 ]
    - # atom 3
      - [  0.13845392695782, -0.00000000146634 ]
      - [ -0.07993641256106,  0.00000000007902 ]
      - [ -0.00000000161286, -0.19692412236172 ]
    - # atom 4
      - [  0.07923604343662, -0.02036945315556 ]
      - [ -0.19625806252630,  0.08269814372914 ]
      - [ -0.11690489722696, -0.00627236707486 ]
    - # atom 5
      - [ -0.09734210466134, -0.06554330706787 ]
      - [  0.01468931548114, -0.06448540778336 ]
      - [ -0.06333488266373,  0.01066205431957 ]
    - # atom 6
      - [  0.04104336633863,  0.18190699074862 ]
      - [  0.02368927827622, -0.09934615241956 ]
      - [  0.03818394487816,  0.05094942189681 ]
    - # atom 7
      - [  0.07923604468392,  0.02036945262860 ]
      - [ -0.19625806139323, -0.08269813699109 ]
      - [  0.11690489796697, -0.00627236902508 ]
    - # atom 8
      - [ -0.09734210051286,  0.06554330481481 ]
      - [  0.01468932027038,  0.06448540452127 ]
      - [  0.06333488476316,  0.01066205110974 ]
    - # atom 9
      - [  0.04104336623513, -0.18190698761732 ]
      - [  0.02368928081696,  0.09934615062950 ]
      - [ -0.03818394694616,  0.05094942228502 ]
    - # atom 10
      - [  0.20958248981641, -0.08180341598524 ]
      - [  0.02950860449400, -0.02370860405238 ]
      - [ -0.11690489809550, -0.00627236649350 ]
    - # atom 11
      - [ -0.06139237490388,  0.02307434832742 ]
      - [  0.07695606968133,  0.08900487133161 ]
      - [ -0.06333488617795,  0.01066205355547 ]
    - # atom 12
      - [  0.00000616475204,  0.17698978354845 ]
      - [ -0.04738923809458, -0.10786299415486 ]
      - [  0.03818394760714,  0.05094941953585 ]
    - # atom 13
      - [  0.20958249285399,  0.08180341521790 ]
      - [  0.02950860691744,  0.02370860599831 ]
      - [  0.11690489715000, -0.00627236837322 ]
    - # atom 14
      - [ -0.06139237358646, -0.02307434801466 ]
      - [  0.07695607275274, -0.08900487743502 ]
      - [  0.06333488442782,  0.01066205469039 ]
    - # atom 15
      - [  0.00000616120576, -0.17698978666454 ]
      - [ -0.04738923338014,  0.10786299752414 ]
      - [ -0.03818394386998,  0.05094942039859 ]
    - # atom 16
      - [  0.32522950871867,  0.00000000000000 ]
      - [ -0.07483261377641,  0.00000000245160 ]
      - [ -0.00000000071372, -0.02178537797488 ]
    - # atom 17
      - [  0.22742169930249, -0.00000000160215 ]
      - [ -0.24424070500154,  0.00000000522660 ]
      - [  0.00000000035686, -0.02178537875818 ]
    - # atom 18
      - [ -0.12961384353508, -0.00000000160215 ]
      - [  0.07483258295481, -0.00000000522660 ]
      - [ -0.00000000035686, -0.04357096476423 ]
    - # atom 19
      - [ -0.15829579536939, -0.00000000000000 ]
      - [  0.06976961598542, -0.00000000228573 ]
      - [  0.00000000206070,  0.06290082607970 ]
    - # atom 20
      - [ -0.13957015876425,  0.00000000030674 ]
      - [  0.10220336921217, -0.00000000281701 ]
      - [ -0.00000000103035,  0.06290082834130 ]
    - # atom 21
      - [  0.12084452177104,  0.00000000030674 ]
      - [ -0.06976961498394,  0.00000000281701 ]
      - [  0.00000000103035,  0.12580178300053 ]
  - # 4
    frequency:    3.8395754626
    group_velocity: [     0.1737144,     0.3008822,     0.0000000 ]
    eigenvector:
    - # atom 1
      - [ -0.02342938805783,  0.00000000000000 ]
      - [  0.13845382860238, -0.00000000453590 ]
      - [ -0.00000000558713, -0.17054154889725 ]
    - # atom 2
      - [  0.13161922583394, -0.00000000253978 ]
      - [  0.04893646748875, -0.00000000013687 ]
      - [  0.00000000279357,  0.17054154685332 ]
    - # atom 3
      - [ -0.02342937474896,  0.00000000253978 ]
      - [ -0.04058086413604, -0.00000000013687 ]
      - [  0.00000000279356,  0.00000000204393 ]
    - # atom 4
      - [  0.02717361701945,  0.03220184495892 ]
      - [  0.12418041593378,  0.08768177293611 ]
      - [  0.00124244845315, -0.02970385248533 ]
    - # atom 5
      - [ -0.13561203232873,  0.10837613072637 ]
      - [ -0.10649477300624,  0.13157123928841 ]
      - [  0.07656776738290, -0.06784088735303 ]
    - # atom 6
      - [  0.13406230918831,  0.10137591242581 ]
      - [ -0.04941566009553,  0.03219355966122 ]
      - [  0.00836262090805,  0.10230451953789 ]
    - # atom 7
      - [  0.02717361485908, -0.03220184404620 ]
      - [  0.12418041397127, -0.08768178460677 ]
      - [ -0.00124244973489, -0.02970384910745 ]
    - # atom 8
      - [ -0.13561203951411, -0.10837612682395 ]
      - [ -0.10649478130145, -0.13157123363831 ]
      - [ -0.07656777101921, -0.06784088179343 ]
    - # atom 9
      - [  0.13406230936758, -0.10137591784938 ]
      - [ -0.04941566449622, -0.03219355656074 ]
      - [ -0.00836261732617,  0.10230451886549 ]
    - # atom 10
      - [  0.09395658431174,  0.05983372797646 ]
      - [  0.08562325067855,  0.07172850358058 ]
      - [ -0.00124244584842,  0.02970384929872 ]
    - # atom 11
      - [ -0.02442116200954,  0.05975596804717 ]
      - [ -0.17069085568139,  0.15964210235287 ]
      - [ -0.07656776637065,  0.06784088533477 ]
    - # atom 12
      - [ -0.10982637660333, -0.02280751938192 ]
      - [  0.09139353944333,  0.10389089621775 ]
      - [ -0.00836262314623, -0.10230451951217 ]
    - # atom 13
      - [  0.09395657905048, -0.05983372664737 ]
      - [  0.08562324648103, -0.07172850695104 ]
      - [  0.00124244748607,  0.02970385255448 ]
    - # atom 14
      - [ -0.02442116429139, -0.05975596858889 ]
      - [ -0.17069086100123, -0.15964209178145 ]
      - [  0.07656776940197,  0.06784088336903 ]
    - # atom 15
      - [ -0.10982637046098,  0.02280752477915 ]
      - [  0.09139353127767, -0.10389090205350 ]
      - [  0.00836261667328, -0.10230452100647 ]
    - # atom 16
      - [  0.18777133422325, -0.00000000000000 ]
      - [  0.12961381485210, -0.00000000424629 ]
      - [  0.00000000123619,  0.03773359509403 ]
    - # atom 17
      - [  0.01836318451075,  0.00000000277500 ]
      - [  0.22742165803597, -0.00000000905273 ]
      - [ -0.00000000061810, -0.03773359464180 ]
    - # atom 18
      - [ -0.18777134680600,  0.00000000277500 ]
      - [ -0.32522951598046,  0.00000000905274 ]
      - [  0.00000000061810,  0.00000000045224 ]
    - # atom 19
      - [ -0.09139209301064,  0.00000000000000 ]
      - [ -0.12084443700651,  0.00000000395900 ]
      - [ -0.00000000356924, -0.10894762137146 ]
    - # atom 20
      - [ -0.05895830295106, -0.00000000053128 ]
      - [ -0.13957009487710,  0.00000000487921 ]
      - [  0.00000000178463,  0.10894762006573 ]
    - # atom 21
      - [  0.09139209414779, -0.00000000053128 ]
      - [  0.15829575337073, -0.00000000487921 ]
      - [ -0.00000000178462, -0.00000000130573 ]
  - # 5
    frequency:    4.4305625752
    group_velocity: [    -4.2398466,    -7.3436297,     0.0000000 ]
    eigenvector:
    - # atom 1
      - [  0.04154356739546,  0.00000000000000 ]
      - [  0.00665174730530,  0.00000000042128 ]
      - [ -0.00000001072062,  0.16927439987661 ]
    - # atom 2
      - [  0.01501120109660,  0.00000000084019 ]
      - [ -0.03930365806996, -0.00000000103397 ]
      - [  0.00000000536030,  0.16927440595088 ]
    - # atom 3
      - [ -0.01152107107832, -0.00000000084018 ]
      - [  0.00665169406221, -0.00000000103397 ]
      - [  0.00000000536031, -0.33854869195563 ]
    - # atom 4
      - [ -0.15755472132888, -0.07247283424959 ]
      - [ -0.01355730240317, -0.12166875785718 ]
      - [ -0.22974247577809, -0.03707465942004 ]
    - # atom 5
      - [  0.16929755718777,  0.08241661554370 ]
      - [ -0.00420815749891,  0.05996177084763 ]
      - [ -0.04513426743063,  0.04789961606907 ]
    - # atom 6
      - [  0.03038219684461, -0.08916628557106 ]
      - [ -0.01105388990430, -0.04654375117568 ]
      - [ -0.00140987976908,  0.17213604417636 ]
    - # atom 7
      - [ -0.15755472315908,  0.07247282918178 ]
      - [ -0.01355729951973,  0.12166876058219 ]
      - [  0.22974247888173, -0.03707464896892 ]
    - # atom 8
      - [  0.16929756102886, -0.08241660561698 ]
      - [ -0.00420815274048, -0.05996177754188 ]
      - [  0.04513426071860,  0.04789962919047 ]
    - # atom 9
      - [  0.03038219406515,  0.08916629287773 ]
      - [ -0.01105388196880,  0.04654374546470 ]
      - [  0.00140988349883,  0.17213604603715 ]
    - # atom 10
      - [ -0.06703639902459,  0.06913181868163 ]
      - [  0.14322503801793,  0.12359769455779 ]
      - [ -0.22974247890737, -0.03707465697291 ]
    - # atom 11
      - [  0.08829315103873, -0.01072011770585 ]
      - [ -0.14451190932433, -0.10135576844798 ]
      - [ -0.04513426665191,  0.04789962972364 ]
    - # atom 12
      - [  0.02476404271535, -0.00427508276468 ]
      - [ -0.02078481514394,  0.10049214507601 ]
      - [ -0.00140988963579,  0.17213604252465 ]
    - # atom 13
      - [ -0.06703639123404, -0.06913181803341 ]
      - [  0.14322504570244, -0.12359768851330 ]
      - [  0.22974247815177, -0.03707465287379 ]
    - # atom 14
      - [  0.08829315256017,  0.01072011253696 ]
      - [ -0.14451191003778,  0.10135576454530 ]
      - [  0.04513427033032,  0.04789961946072 ]
    - # atom 15
      - [  0.02476405070667,  0.00427507573386 ]
      - [ -0.02078480721881, -0.10049214292009 ]
      - [  0.00140987500416,  0.17213604075316 ]
    - # atom 16
      - [  0.03360615542618,  0.00000000000000 ]
      - [  0.02342645814862,  0.00000000148366 ]
      - [ -0.00000000006511,  0.00102805299809 ]
    - # atom 17
      - [ -0.00348483109331,  0.00000000117453 ]
      - [ -0.04081701346911, -0.00000000055069 ]
      - [  0.00000000003255,  0.00102805303498 ]
    - # atom 18
      - [  0.04057577615287,  0.00000000117453 ]
      - [ -0.02342643574859,  0.00000000055069 ]
      - [ -0.00000000003255,  0.00205592800954 ]
    - # atom 19
      - [  0.13092840950389, -0.00000000000000 ]
      - [ -0.06241632181036, -0.00000000395301 ]
      - [ -0.00000000428699,  0.06768990590945 ]
    - # atom 20
      - [  0.11951832620716,  0.00000000036131 ]
      - [ -0.08217916532613, -0.00000000457882 ]
      - [  0.00000000214349,  0.06768990833846 ]
    - # atom 21
      - [ -0.10810832328823,  0.00000000036131 ]
      - [  0.06241636774374,  0.00000000457882 ]
      - [ -0.00000000214350,  0.13537977133678 ]
  - # 6
    frequency:    4.4305627901
    group_velocity: [     4.2398393,     7.3436171,     0.0000000 ]
    eigenvector:
    - # atom 1
      - [  0.02398520115079,  0.00000000000000 ]
      - [ -0.01152123208724, -0.00000000072967 ]
      - [  0.00000001856865, -0.29319169714067 ]
    - # atom 2
      - [ -0.02197028055684, -0.00000000145525 ]
      - [  0.01501117828213,  0.00000000179088 ]
      - [ -0.00000000928432,  0.29319169363368 ]
    - # atom 3
      - [  0.02398518929263,  0.00000000145524 ]
      - [  0.04154356620838,  0.00000000179089 ]
      - [ -0.00000000928433,  0.00000000350699 ]
    - # atom 4
      - [  0.00143332008029, -0.00847349755670 ]
      - [ -0.05751029012175, -0.12281732438480 ]
      - [  0.05790567751608,  0.03518147596096 ]
    - # atom 5
      - [ -0.08324258426215, -0.02244851936139 ]
      - [  0.11962186564536, -0.05213798479242 ]
      - [  0.21317471322431, -0.09472070905987 ]
    - # atom 6
      - [ -0.11567616554339, -0.00080437142865 ]
      - [  0.09774226470977, -0.17155432681218 ]
      - [  0.03311243251460,  0.16738477752091 ]
    - # atom 7
      - [  0.00143332325029,  0.00847350633439 ]
      - [ -0.05751029511603,  0.12281731966496 ]
      - [ -0.05790568289175,  0.03518145785910 ]
    - # atom 8
      - [ -0.08324259091511,  0.02244850216782 ]
      - [  0.11962185740353,  0.05213799638720 ]
      - [ -0.21317470159873, -0.09472073178680 ]
    - # atom 9
      - [ -0.11567616072922,  0.00080435877311 ]
      - [  0.09774225096507,  0.17155433670389 ]
      - [ -0.03311243897473,  0.16738477429793 ]
    - # atom 10
      - [ -0.05052202708403, -0.10212617191918 ]
      - [ -0.02751384964783, -0.06874693675165 ]
      - [ -0.05790567478979, -0.03518146259198 ]
    - # atom 11
      - [  0.14521686421084, -0.03392856427225 ]
      - [ -0.01227926239018, -0.04550997041449 ]
      - [ -0.21317470966204,  0.09472071054301 ]
    - # atom 12
      - [  0.14248536628624, -0.14816822070384 ]
      - [ -0.05130735967567, -0.08647377043935 ]
      - [ -0.03311242304410, -0.16738478100986 ]
    - # atom 13
      - [ -0.05052204057765,  0.10212617079643 ]
      - [ -0.02751386295779,  0.06874692628228 ]
      - [  0.05790567609854, -0.03518146969186 ]
    - # atom 14
      - [  0.14521686157563,  0.03392857322505 ]
      - [ -0.01227926115445,  0.04550997717414 ]
      - [  0.21317470329084,  0.09472072831892 ]
    - # atom 15
      - [  0.14248535244486,  0.14816823288157 ]
      - [ -0.05130737340238,  0.08647376670519 ]
      - [  0.03311244838680, -0.16738477794153 ]
    - # atom 16
      - [  0.01940236315549, -0.00000000000001 ]
      - [ -0.04057582547321, -0.00000000256978 ]
      - [  0.00000000011277, -0.00178053259851 ]
    - # atom 17
      - [ -0.04484087714487, -0.00000000203436 ]
      - [ -0.00348497250486,  0.00000000095383 ]
      - [ -0.00000000005638,  0.00178053257721 ]
    - # atom 18
      - [ -0.01940235240213, -0.00000000203435 ]
      - [ -0.03360585917616, -0.00000000095382 ]
      - [  0.00000000005638, -0.00000000002130 ]
    - # atom 19
      - [  0.07559159340022,  0.00000000000000 ]
      - [  0.10810837904450,  0.00000000684680 ]
      - [  0.00000000742528, -0.11724222566541 ]
    - # atom 20
      - [  0.05582880343822, -0.00000000062581 ]
      - [  0.11951843142196,  0.00000000793075 ]
      - [ -0.00000000371264,  0.11724222426303 ]
    - # atom 21
      - [ -0.07559158659644, -0.00000000062582 ]
      - [ -0.13092847119603, -0.00000000793075 ]
      - [  0.00000000371264, -0.00000000140238 ]
  - # 7
    frequency:    4.7822418459
    group_velocity: [    -0.0016717,    -0.0028955,     0.0000000 ]
    eigenvector:
    - # atom 1
      - [ -0.03549794307831,  0.00000000000000 ]
      - [ -0.08327156523351,  0.00000007690604 ]
      - [  0.00000002816112,  0.03049200751478 ]
    - # atom 2
      - [ -0.05436630511791,  0.00000000871304 ]
      - [ -0.07237790885455,  0.00000006181471 ]
      - [ -0.00000001408056, -0.03049200404922 ]
    - # atom 3
      - [ -0.03549791177201, -0.00000000871300 ]
      - [ -0.06148420568020,  0.00000006181465 ]
      - [ -0.00000001408053, -0.00000000346555 ]
    - # atom 4
      - [ -0.05571822493183, -0.00146968026726 ]
      - [  0.15161776096259,  0.15965687714666 ]
      - [ -0.16020756768594, -0.08530155885064 ]
    - # atom 5
      - [ -0.07203750363956, -0.12025307887253 ]
      - [ -0.00423844868091, -0.12457027647734 ]
      - [ -0.03594347287778, -0.07841163721730 ]
    - # atom 6
      - [ -0.08187277683303, -0.21215064160338 ]
      - [ -0.00777425278415,  0.00610473082248 ]
      - [  0.04837901582411,  0.17088442717541 ]
    - # atom 7
      - [ -0.05571820568001,  0.00146968155176 ]
      - [  0.15161745433487, -0.15965697430738 ]
      - [  0.16020741087757, -0.08530169074957 ]
    - # atom 8
      - [ -0.07203732743739,  0.12025305977370 ]
      - [ -0.00423821121826,  0.12457014761588 ]
      - [  0.03594330406034, -0.07841153770633 ]
    - # atom 9
      - [ -0.08187240411014,  0.21215063454961 ]
      - [ -0.00777430296021, -0.00610466097169 ]
      - [ -0.04837869401571,  0.17088443711217 ]
    - # atom 10
      - [  0.15916389591682,  0.13900159558986 ]
      - [  0.02755545213368,  0.07855566057484 ]
      - [  0.16020755121067,  0.08530145929880 ]
    - # atom 11
      - [  0.03234818489424, -0.04775441466605 ]
      - [ -0.06450553367148, -0.16642717905879 ]
      - [  0.03594344943433,  0.07841147309811 ]
    - # atom 12
      - [  0.03420363988783,  0.11136204278175 ]
      - [ -0.07479100201332, -0.18067539318549 ]
      - [ -0.04837894479794, -0.17088434915187 ]
    - # atom 13
      - [  0.15916378596171, -0.13900195179479 ]
      - [  0.02755537112293, -0.07855568945391 ]
      - [ -0.16020747167619,  0.08530177128240 ]
    - # atom 14
      - [  0.03234819965851,  0.04775442708767 ]
      - [ -0.06450534388278,  0.16642743875297 ]
      - [ -0.03594340099896,  0.07841167219649 ]
    - # atom 15
      - [  0.03420356115502, -0.11136220156813 ]
      - [ -0.07479079912017,  0.18067557158991 ]
      - [  0.04837879314157, -0.17088447325709 ]
    - # atom 16
      - [ -0.05761906417219,  0.00000000000003 ]
      - [  0.00224482136391, -0.00000000207322 ]
      - [  0.00000004509856,  0.04883134756991 ]
    - # atom 17
      - [  0.03075361401630, -0.00000004080862 ]
      - [ -0.04877717977504,  0.00000006860937 ]
      - [ -0.00000002254927, -0.04883134201997 ]
    - # atom 18
      - [  0.05761911539993, -0.00000004080868 ]
      - [  0.09979923484957, -0.00000006860943 ]
      - [  0.00000002254929,  0.00000000554994 ]
    - # atom 19
      - [ -0.11800102291510,  0.00000000000000 ]
      - [  0.04371905858799, -0.00000004037705 ]
      - [ -0.00000009823196, -0.10636261798770 ]
    - # atom 20
      - [  0.09686234263824, -0.00000009921935 ]
      - [ -0.08033239155140,  0.00000013147587 ]
      - [  0.00000004911602,  0.10636260589905 ]
    - # atom 21
      - [  0.11800100004203, -0.00000009921930 ]
      - [  0.20438371747893, -0.00000013147582 ]
      - [ -0.00000004911595, -0.00000001208866 ]
  - # 8
    frequency:    4.7822418518
    group_velocity: [     0.0016766,     0.0029039,     0.0000000 ]
    eigenvector:
    - # atom 1
      - [ -0.06148427505985,  0.00000000000000 ]
      - [  0.04807679107492, -0.00000004440170 ]
      - [ -0.00000001625882, -0.01760455913570 ]
    - # atom 2
      - [ -0.07237787063565, -0.00000000503047 ]
      - [  0.02920853434952, -0.00000003568872 ]
      - [  0.00000000812941, -0.01760456513828 ]
    - # atom 3
      - [ -0.08327152746381,  0.00000000503045 ]
      - [  0.04807683072799, -0.00000003568868 ]
      - [  0.00000000812939,  0.03520906482813 ]
    - # atom 4
      - [ -0.09490085579389,  0.02152450888749 ]
      - [  0.14113180451529, -0.10683498240178 ]
      - [ -0.11257765932323,  0.04830676165522 ]
    - # atom 5
      - [ -0.14865127470199,  0.01201668136512 ]
      - [ -0.16845323183232,  0.08113166002495 ]
      - [ -0.18667186005589,  0.07525537110078 ]
    - # atom 6
      - [ -0.15062661244327,  0.09855032553263 ]
      - [  0.07386724780092, -0.05216026315415 ]
      - [  0.07137089957825, -0.10636840159241 ]
    - # atom 7
      - [ -0.09490086690893, -0.02152450962909 ]
      - [  0.14113198154679,  0.10683503849752 ]
      - [  0.11257774985653,  0.04830683780706 ]
    - # atom 8
      - [ -0.14865137643230, -0.01201667033841 ]
      - [ -0.16845336893137, -0.08113158562679 ]
      - [  0.18667195752263,  0.07525531364814 ]
    - # atom 9
      - [ -0.15062682763481, -0.09855032146014 ]
      - [  0.07386727677006,  0.05216022282580 ]
      - [ -0.07137108537431, -0.10636840732941 ]
    - # atom 10
      - [ -0.16967423573350,  0.10328421788308 ]
      - [  0.01162059229453,  0.03477675720407 ]
      - [ -0.11257769601148,  0.04830690658524 ]
    - # atom 11
      - [  0.07155918532849, -0.06425372147819 ]
      - [  0.21296251652719, -0.05097266569924 ]
      - [ -0.18667191569562,  0.07525541528506 ]
    - # atom 12
      - [ -0.13928430166173,  0.09444732500518 ]
      - [  0.09351297874684, -0.05926704927222 ]
      - [  0.07137102673195, -0.10636847392682 ]
    - # atom 13
      - [ -0.16967417225093, -0.10328401222819 ]